+ 0.5 2 3 cbr 1000 ------- 0 2.0 3.0 0 0
- 0.5 2 3 cbr 1000 ------- 0 2.0 3.0 0 0
+ 0.500333 2 3 cbr 1000 ------- 0 2.0 3.0 1 1
+ 0.500667 2 3 cbr 1000 ------- 0 2.0 3.0 2 2
- 0.5008 2 3 cbr 1000 ------- 0 2.0 3.0 1 1
+ 0.501 2 3 cbr 1000 ------- 0 2.0 3.0 3 3
+ 0.501333 2 3 cbr 1000 ------- 0 2.0 3.0 4 4
- 0.5016 2 3 cbr 1000 ------- 0 2.0 3.0 2 2
+ 0.501667 2 3 cbr 1000 ------- 0 2.0 3.0 5 5
+ 0.502 2 3 cbr 1000 ------- 0 2.0 3.0 6 6
+ 0.502333 2 3 cbr 1000 ------- 0 2.0 3.0 7 7
- 0.5024 2 3 cbr 1000 ------- 0 2.0 3.0 3 3
+ 0.502667 2 3 cbr 1000 ------- 0 2.0 3.0 8 8
+ 0.503 2 3 cbr 1000 ------- 0 2.0 3.0 9 9
- 0.5032 2 3 cbr 1000 ------- 0 2.0 3.0 4 4
+ 0.503333 2 3 cbr 1000 ------- 0 2.0 3.0 10 10
+ 0.503667 2 3 cbr 1000 ------- 0 2.0 3.0 11 11
+ 0.504 2 3 cbr 1000 ------- 0 2.0 3.0 12 12
- 0.504 2 3 cbr 1000 ------- 0 2.0 3.0 5 5
+ 0.504333 2 3 cbr 1000 ------- 0 2.0 3.0 13 13
+ 0.504667 2 3 cbr 1000 ------- 0 2.0 3.0 14 14
- 0.5048 2 3 cbr 1000 ------- 0 2.0 3.0 6 6
+ 0.505 2 3 cbr 1000 ------- 0 2.0 3.0 15 15
+ 0.505333 2 3 cbr 1000 ------- 0 2.0 3.0 16 16
- 0.5056 2 3 cbr 1000 ------- 0 2.0 3.0 7 7
+ 0.505667 2 3 cbr 1000 ------- 0 2.0 3.0 17 17
+ 0.506 2 3 cbr 1000 ------- 0 2.0 3.0 18 18
+ 0.506333 2 3 cbr 1000 ------- 0 2.0 3.0 19 19
- 0.5064 2 3 cbr 1000 ------- 0 2.0 3.0 8 8
+ 0.506667 2 3 cbr 1000 ------- 0 2.0 3.0 20 20
+ 0.507 2 3 cbr 1000 ------- 0 2.0 3.0 21 21
- 0.5072 2 3 cbr 1000 ------- 0 2.0 3.0 9 9
+ 0.507333 2 3 cbr 1000 ------- 0 2.0 3.0 22 22
+ 0.507667 2 3 cbr 1000 ------- 0 2.0 3.0 23 23
+ 0.508 2 3 cbr 1000 ------- 0 2.0 3.0 24 24
- 0.508 2 3 cbr 1000 ------- 0 2.0 3.0 10 10
+ 0.508333 2 3 cbr 1000 ------- 0 2.0 3.0 25 25
+ 0.508667 2 3 cbr 1000 ------- 0 2.0 3.0 26 26
- 0.5088 2 3 cbr 1000 ------- 0 2.0 3.0 11 11
+ 0.509 2 3 cbr 1000 ------- 0 2.0 3.0 27 27
+ 0.509333 2 3 cbr 1000 ------- 0 2.0 3.0 28 28
- 0.5096 2 3 cbr 1000 ------- 0 2.0 3.0 12 12
+ 0.509667 2 3 cbr 1000 ------- 0 2.0 3.0 29 29
+ 0.51 2 3 cbr 1000 ------- 0 2.0 3.0 30 30
+ 0.510333 2 3 cbr 1000 ------- 0 2.0 3.0 31 31
- 0.5104 2 3 cbr 1000 ------- 0 2.0 3.0 13 13
+ 0.510667 2 3 cbr 1000 ------- 0 2.0 3.0 32 32
+ 0.511 2 3 cbr 1000 ------- 0 2.0 3.0 33 33
- 0.5112 2 3 cbr 1000 ------- 0 2.0 3.0 14 14
+ 0.511333 2 3 cbr 1000 ------- 0 2.0 3.0 34 34
+ 0.511667 2 3 cbr 1000 ------- 0 2.0 3.0 35 35
+ 0.512 2 3 cbr 1000 ------- 0 2.0 3.0 36 36
- 0.512 2 3 cbr 1000 ------- 0 2.0 3.0 15 15
+ 0.512333 2 3 cbr 1000 ------- 0 2.0 3.0 37 37
+ 0.512667 2 3 cbr 1000 ------- 0 2.0 3.0 38 38
- 0.5128 2 3 cbr 1000 ------- 0 2.0 3.0 16 16
+ 0.513 2 3 cbr 1000 ------- 0 2.0 3.0 39 39
+ 0.513333 2 3 cbr 1000 ------- 0 2.0 3.0 40 40
- 0.5136 2 3 cbr 1000 ------- 0 2.0 3.0 17 17
+ 0.513667 2 3 cbr 1000 ------- 0 2.0 3.0 41 41
+ 0.514 2 3 cbr 1000 ------- 0 2.0 3.0 42 42
d 0.514 2 3 cbr 1000 ------- 0 2.0 3.0 42 42
+ 0.514333 2 3 cbr 1000 ------- 0 2.0 3.0 43 43
d 0.514333 2 3 cbr 1000 ------- 0 2.0 3.0 43 43
- 0.5144 2 3 cbr 1000 ------- 0 2.0 3.0 18 18
+ 0.514667 2 3 cbr 1000 ------- 0 2.0 3.0 44 44
+ 0.515 2 3 cbr 1000 ------- 0 2.0 3.0 45 45
d 0.515 2 3 cbr 1000 ------- 0 2.0 3.0 45 45
- 0.5152 2 3 cbr 1000 ------- 0 2.0 3.0 19 19
+ 0.515333 2 3 cbr 1000 ------- 0 2.0 3.0 46 46
+ 0.515667 2 3 cbr 1000 ------- 0 2.0 3.0 47 47
d 0.515667 2 3 cbr 1000 ------- 0 2.0 3.0 47 47
+ 0.516 2 3 cbr 1000 ------- 0 2.0 3.0 48 48
d 0.516 2 3 cbr 1000 ------- 0 2.0 3.0 48 48
- 0.516 2 3 cbr 1000 ------- 0 2.0 3.0 20 20
+ 0.516333 2 3 cbr 1000 ------- 0 2.0 3.0 49 49
+ 0.516667 2 3 cbr 1000 ------- 0 2.0 3.0 50 50
d 0.516667 2 3 cbr 1000 ------- 0 2.0 3.0 50 50
- 0.5168 2 3 cbr 1000 ------- 0 2.0 3.0 21 21
+ 0.517 2 3 cbr 1000 ------- 0 2.0 3.0 51 51
+ 0.517333 2 3 cbr 1000 ------- 0 2.0 3.0 52 52
d 0.517333 2 3 cbr 1000 ------- 0 2.0 3.0 52 52
- 0.5176 2 3 cbr 1000 ------- 0 2.0 3.0 22 22
+ 0.517667 2 3 cbr 1000 ------- 0 2.0 3.0 53 53
+ 0.518 2 3 cbr 1000 ------- 0 2.0 3.0 54 54
d 0.518 2 3 cbr 1000 ------- 0 2.0 3.0 54 54
+ 0.518333 2 3 cbr 1000 ------- 0 2.0 3.0 55 55
d 0.518333 2 3 cbr 1000 ------- 0 2.0 3.0 55 55
- 0.5184 2 3 cbr 1000 ------- 0 2.0 3.0 23 23
+ 0.518667 2 3 cbr 1000 ------- 0 2.0 3.0 56 56
+ 0.519 2 3 cbr 1000 ------- 0 2.0 3.0 57 57
d 0.519 2 3 cbr 1000 ------- 0 2.0 3.0 57 57
- 0.5192 2 3 cbr 1000 ------- 0 2.0 3.0 24 24
+ 0.519333 2 3 cbr 1000 ------- 0 2.0 3.0 58 58
+ 0.519667 2 3 cbr 1000 ------- 0 2.0 3.0 59 59
d 0.519667 2 3 cbr 1000 ------- 0 2.0 3.0 59 59
+ 0.52 2 3 cbr 1000 ------- 0 2.0 3.0 60 60
d 0.52 2 3 cbr 1000 ------- 0 2.0 3.0 60 60
- 0.52 2 3 cbr 1000 ------- 0 2.0 3.0 25 25
+ 0.520333 2 3 cbr 1000 ------- 0 2.0 3.0 61 61
+ 0.520667 2 3 cbr 1000 ------- 0 2.0 3.0 62 62
d 0.520667 2 3 cbr 1000 ------- 0 2.0 3.0 62 62
r 0.5208 2 3 cbr 1000 ------- 0 2.0 3.0 0 0
- 0.5208 2 3 cbr 1000 ------- 0 2.0 3.0 26 26
+ 0.521 2 3 cbr 1000 ------- 0 2.0 3.0 63 63
+ 0.521333 2 3 cbr 1000 ------- 0 2.0 3.0 64 64
d 0.521333 2 3 cbr 1000 ------- 0 2.0 3.0 64 64
r 0.5216 2 3 cbr 1000 ------- 0 2.0 3.0 1 1
- 0.5216 2 3 cbr 1000 ------- 0 2.0 3.0 27 27
+ 0.521667 2 3 cbr 1000 ------- 0 2.0 3.0 65 65
+ 0.522 2 3 cbr 1000 ------- 0 2.0 3.0 66 66
d 0.522 2 3 cbr 1000 ------- 0 2.0 3.0 66 66
+ 0.522333 2 3 cbr 1000 ------- 0 2.0 3.0 67 67
d 0.522333 2 3 cbr 1000 ------- 0 2.0 3.0 67 67
r 0.5224 2 3 cbr 1000 ------- 0 2.0 3.0 2 2
- 0.5224 2 3 cbr 1000 ------- 0 2.0 3.0 28 28
+ 0.522667 2 3 cbr 1000 ------- 0 2.0 3.0 68 68
+ 0.523 2 3 cbr 1000 ------- 0 2.0 3.0 69 69
d 0.523 2 3 cbr 1000 ------- 0 2.0 3.0 69 69
r 0.5232 2 3 cbr 1000 ------- 0 2.0 3.0 3 3
- 0.5232 2 3 cbr 1000 ------- 0 2.0 3.0 29 29
+ 0.523333 2 3 cbr 1000 ------- 0 2.0 3.0 70 70
+ 0.523667 2 3 cbr 1000 ------- 0 2.0 3.0 71 71
d 0.523667 2 3 cbr 1000 ------- 0 2.0 3.0 71 71
+ 0.524 2 3 cbr 1000 ------- 0 2.0 3.0 72 72
d 0.524 2 3 cbr 1000 ------- 0 2.0 3.0 72 72
r 0.524 2 3 cbr 1000 ------- 0 2.0 3.0 4 4
- 0.524 2 3 cbr 1000 ------- 0 2.0 3.0 30 30
+ 0.524333 2 3 cbr 1000 ------- 0 2.0 3.0 73 73
+ 0.524667 2 3 cbr 1000 ------- 0 2.0 3.0 74 74
d 0.524667 2 3 cbr 1000 ------- 0 2.0 3.0 74 74
r 0.5248 2 3 cbr 1000 ------- 0 2.0 3.0 5 5
- 0.5248 2 3 cbr 1000 ------- 0 2.0 3.0 31 31
+ 0.525 2 3 cbr 1000 ------- 0 2.0 3.0 75 75
+ 0.525333 2 3 cbr 1000 ------- 0 2.0 3.0 76 76
d 0.525333 2 3 cbr 1000 ------- 0 2.0 3.0 76 76
r 0.5256 2 3 cbr 1000 ------- 0 2.0 3.0 6 6
- 0.5256 2 3 cbr 1000 ------- 0 2.0 3.0 32 32
+ 0.525667 2 3 cbr 1000 ------- 0 2.0 3.0 77 77
+ 0.526 2 3 cbr 1000 ------- 0 2.0 3.0 78 78
d 0.526 2 3 cbr 1000 ------- 0 2.0 3.0 78 78
+ 0.526333 2 3 cbr 1000 ------- 0 2.0 3.0 79 79
d 0.526333 2 3 cbr 1000 ------- 0 2.0 3.0 79 79
r 0.5264 2 3 cbr 1000 ------- 0 2.0 3.0 7 7
- 0.5264 2 3 cbr 1000 ------- 0 2.0 3.0 33 33
+ 0.526667 2 3 cbr 1000 ------- 0 2.0 3.0 80 80
+ 0.527 2 3 cbr 1000 ------- 0 2.0 3.0 81 81
d 0.527 2 3 cbr 1000 ------- 0 2.0 3.0 81 81
r 0.5272 2 3 cbr 1000 ------- 0 2.0 3.0 8 8
- 0.5272 2 3 cbr 1000 ------- 0 2.0 3.0 34 34
+ 0.527333 2 3 cbr 1000 ------- 0 2.0 3.0 82 82
+ 0.527667 2 3 cbr 1000 ------- 0 2.0 3.0 83 83
d 0.527667 2 3 cbr 1000 ------- 0 2.0 3.0 83 83
+ 0.528 2 3 cbr 1000 ------- 0 2.0 3.0 84 84
d 0.528 2 3 cbr 1000 ------- 0 2.0 3.0 84 84
r 0.528 2 3 cbr 1000 ------- 0 2.0 3.0 9 9
- 0.528 2 3 cbr 1000 ------- 0 2.0 3.0 35 35
+ 0.528333 2 3 cbr 1000 ------- 0 2.0 3.0 85 85
+ 0.528667 2 3 cbr 1000 ------- 0 2.0 3.0 86 86
d 0.528667 2 3 cbr 1000 ------- 0 2.0 3.0 86 86
r 0.5288 2 3 cbr 1000 ------- 0 2.0 3.0 10 10
- 0.5288 2 3 cbr 1000 ------- 0 2.0 3.0 36 36
+ 0.529 2 3 cbr 1000 ------- 0 2.0 3.0 87 87
+ 0.529333 2 3 cbr 1000 ------- 0 2.0 3.0 88 88
d 0.529333 2 3 cbr 1000 ------- 0 2.0 3.0 88 88
r 0.5296 2 3 cbr 1000 ------- 0 2.0 3.0 11 11
- 0.5296 2 3 cbr 1000 ------- 0 2.0 3.0 37 37
+ 0.529667 2 3 cbr 1000 ------- 0 2.0 3.0 89 89
+ 0.53 2 3 cbr 1000 ------- 0 2.0 3.0 90 90
d 0.53 2 3 cbr 1000 ------- 0 2.0 3.0 90 90
+ 0.530333 2 3 cbr 1000 ------- 0 2.0 3.0 91 91
d 0.530333 2 3 cbr 1000 ------- 0 2.0 3.0 91 91
r 0.5304 2 3 cbr 1000 ------- 0 2.0 3.0 12 12
- 0.5304 2 3 cbr 1000 ------- 0 2.0 3.0 38 38
+ 0.530667 2 3 cbr 1000 ------- 0 2.0 3.0 92 92
+ 0.531 2 3 cbr 1000 ------- 0 2.0 3.0 93 93
d 0.531 2 3 cbr 1000 ------- 0 2.0 3.0 93 93
r 0.5312 2 3 cbr 1000 ------- 0 2.0 3.0 13 13
- 0.5312 2 3 cbr 1000 ------- 0 2.0 3.0 39 39
+ 0.531333 2 3 cbr 1000 ------- 0 2.0 3.0 94 94
+ 0.531667 2 3 cbr 1000 ------- 0 2.0 3.0 95 95
d 0.531667 2 3 cbr 1000 ------- 0 2.0 3.0 95 95
+ 0.532 2 3 cbr 1000 ------- 0 2.0 3.0 96 96
d 0.532 2 3 cbr 1000 ------- 0 2.0 3.0 96 96
r 0.532 2 3 cbr 1000 ------- 0 2.0 3.0 14 14
- 0.532 2 3 cbr 1000 ------- 0 2.0 3.0 40 40
+ 0.532333 2 3 cbr 1000 ------- 0 2.0 3.0 97 97
+ 0.532667 2 3 cbr 1000 ------- 0 2.0 3.0 98 98
d 0.532667 2 3 cbr 1000 ------- 0 2.0 3.0 98 98
r 0.5328 2 3 cbr 1000 ------- 0 2.0 3.0 15 15
- 0.5328 2 3 cbr 1000 ------- 0 2.0 3.0 41 41
+ 0.533 2 3 cbr 1000 ------- 0 2.0 3.0 99 99
+ 0.533333 2 3 cbr 1000 ------- 0 2.0 3.0 100 100
d 0.533333 2 3 cbr 1000 ------- 0 2.0 3.0 100 100
r 0.5336 2 3 cbr 1000 ------- 0 2.0 3.0 16 16
- 0.5336 2 3 cbr 1000 ------- 0 2.0 3.0 44 44
+ 0.533667 2 3 cbr 1000 ------- 0 2.0 3.0 101 101
+ 0.534 2 3 cbr 1000 ------- 0 2.0 3.0 102 102
d 0.534 2 3 cbr 1000 ------- 0 2.0 3.0 102 102
+ 0.534333 2 3 cbr 1000 ------- 0 2.0 3.0 103 103
d 0.534333 2 3 cbr 1000 ------- 0 2.0 3.0 103 103
r 0.5344 2 3 cbr 1000 ------- 0 2.0 3.0 17 17
- 0.5344 2 3 cbr 1000 ------- 0 2.0 3.0 46 46
+ 0.534667 2 3 cbr 1000 ------- 0 2.0 3.0 104 104
+ 0.535 2 3 cbr 1000 ------- 0 2.0 3.0 105 105
d 0.535 2 3 cbr 1000 ------- 0 2.0 3.0 105 105
r 0.5352 2 3 cbr 1000 ------- 0 2.0 3.0 18 18
- 0.5352 2 3 cbr 1000 ------- 0 2.0 3.0 49 49
+ 0.535333 2 3 cbr 1000 ------- 0 2.0 3.0 106 106
+ 0.535667 2 3 cbr 1000 ------- 0 2.0 3.0 107 107
d 0.535667 2 3 cbr 1000 ------- 0 2.0 3.0 107 107
+ 0.536 2 3 cbr 1000 ------- 0 2.0 3.0 108 108
d 0.536 2 3 cbr 1000 ------- 0 2.0 3.0 108 108
r 0.536 2 3 cbr 1000 ------- 0 2.0 3.0 19 19
- 0.536 2 3 cbr 1000 ------- 0 2.0 3.0 51 51
+ 0.536333 2 3 cbr 1000 ------- 0 2.0 3.0 109 109
+ 0.536667 2 3 cbr 1000 ------- 0 2.0 3.0 110 110
d 0.536667 2 3 cbr 1000 ------- 0 2.0 3.0 110 110
r 0.5368 2 3 cbr 1000 ------- 0 2.0 3.0 20 20
- 0.5368 2 3 cbr 1000 ------- 0 2.0 3.0 53 53
+ 0.537 2 3 cbr 1000 ------- 0 2.0 3.0 111 111
+ 0.537333 2 3 cbr 1000 ------- 0 2.0 3.0 112 112
d 0.537333 2 3 cbr 1000 ------- 0 2.0 3.0 112 112
r 0.5376 2 3 cbr 1000 ------- 0 2.0 3.0 21 21
- 0.5376 2 3 cbr 1000 ------- 0 2.0 3.0 56 56
+ 0.537667 2 3 cbr 1000 ------- 0 2.0 3.0 113 113
+ 0.538 2 3 cbr 1000 ------- 0 2.0 3.0 114 114
d 0.538 2 3 cbr 1000 ------- 0 2.0 3.0 114 114
+ 0.538333 2 3 cbr 1000 ------- 0 2.0 3.0 115 115
d 0.538333 2 3 cbr 1000 ------- 0 2.0 3.0 115 115
r 0.5384 2 3 cbr 1000 ------- 0 2.0 3.0 22 22
- 0.5384 2 3 cbr 1000 ------- 0 2.0 3.0 58 58
+ 0.538667 2 3 cbr 1000 ------- 0 2.0 3.0 116 116
+ 0.539 2 3 cbr 1000 ------- 0 2.0 3.0 117 117
d 0.539 2 3 cbr 1000 ------- 0 2.0 3.0 117 117
r 0.5392 2 3 cbr 1000 ------- 0 2.0 3.0 23 23
- 0.5392 2 3 cbr 1000 ------- 0 2.0 3.0 61 61
+ 0.539333 2 3 cbr 1000 ------- 0 2.0 3.0 118 118
+ 0.539667 2 3 cbr 1000 ------- 0 2.0 3.0 119 119
d 0.539667 2 3 cbr 1000 ------- 0 2.0 3.0 119 119
+ 0.54 2 3 cbr 1000 ------- 0 2.0 3.0 120 120
d 0.54 2 3 cbr 1000 ------- 0 2.0 3.0 120 120
r 0.54 2 3 cbr 1000 ------- 0 2.0 3.0 24 24
- 0.54 2 3 cbr 1000 ------- 0 2.0 3.0 63 63
+ 0.540333 2 3 cbr 1000 ------- 0 2.0 3.0 121 121
+ 0.540667 2 3 cbr 1000 ------- 0 2.0 3.0 122 122
d 0.540667 2 3 cbr 1000 ------- 0 2.0 3.0 122 122
r 0.5408 2 3 cbr 1000 ------- 0 2.0 3.0 25 25
- 0.5408 2 3 cbr 1000 ------- 0 2.0 3.0 65 65
+ 0.541 2 3 cbr 1000 ------- 0 2.0 3.0 123 123
+ 0.541333 2 3 cbr 1000 ------- 0 2.0 3.0 124 124
d 0.541333 2 3 cbr 1000 ------- 0 2.0 3.0 124 124
r 0.5416 2 3 cbr 1000 ------- 0 2.0 3.0 26 26
- 0.5416 2 3 cbr 1000 ------- 0 2.0 3.0 68 68
+ 0.541667 2 3 cbr 1000 ------- 0 2.0 3.0 125 125
+ 0.542 2 3 cbr 1000 ------- 0 2.0 3.0 126 126
d 0.542 2 3 cbr 1000 ------- 0 2.0 3.0 126 126
+ 0.542333 2 3 cbr 1000 ------- 0 2.0 3.0 127 127
d 0.542333 2 3 cbr 1000 ------- 0 2.0 3.0 127 127
r 0.5424 2 3 cbr 1000 ------- 0 2.0 3.0 27 27
- 0.5424 2 3 cbr 1000 ------- 0 2.0 3.0 70 70
+ 0.542667 2 3 cbr 1000 ------- 0 2.0 3.0 128 128
+ 0.543 2 3 cbr 1000 ------- 0 2.0 3.0 129 129
d 0.543 2 3 cbr 1000 ------- 0 2.0 3.0 129 129
r 0.5432 2 3 cbr 1000 ------- 0 2.0 3.0 28 28
- 0.5432 2 3 cbr 1000 ------- 0 2.0 3.0 73 73
+ 0.543333 2 3 cbr 1000 ------- 0 2.0 3.0 130 130
+ 0.543667 2 3 cbr 1000 ------- 0 2.0 3.0 131 131
d 0.543667 2 3 cbr 1000 ------- 0 2.0 3.0 131 131
+ 0.544 2 3 cbr 1000 ------- 0 2.0 3.0 132 132
d 0.544 2 3 cbr 1000 ------- 0 2.0 3.0 132 132
r 0.544 2 3 cbr 1000 ------- 0 2.0 3.0 29 29
- 0.544 2 3 cbr 1000 ------- 0 2.0 3.0 75 75
+ 0.544333 2 3 cbr 1000 ------- 0 2.0 3.0 133 133
+ 0.544667 2 3 cbr 1000 ------- 0 2.0 3.0 134 134
d 0.544667 2 3 cbr 1000 ------- 0 2.0 3.0 134 134
r 0.5448 2 3 cbr 1000 ------- 0 2.0 3.0 30 30
- 0.5448 2 3 cbr 1000 ------- 0 2.0 3.0 77 77
+ 0.545 2 3 cbr 1000 ------- 0 2.0 3.0 135 135
+ 0.545333 2 3 cbr 1000 ------- 0 2.0 3.0 136 136
d 0.545333 2 3 cbr 1000 ------- 0 2.0 3.0 136 136
r 0.5456 2 3 cbr 1000 ------- 0 2.0 3.0 31 31
- 0.5456 2 3 cbr 1000 ------- 0 2.0 3.0 80 80
+ 0.545667 2 3 cbr 1000 ------- 0 2.0 3.0 137 137
+ 0.546 2 3 cbr 1000 ------- 0 2.0 3.0 138 138
d 0.546 2 3 cbr 1000 ------- 0 2.0 3.0 138 138
+ 0.546333 2 3 cbr 1000 ------- 0 2.0 3.0 139 139
d 0.546333 2 3 cbr 1000 ------- 0 2.0 3.0 139 139
r 0.5464 2 3 cbr 1000 ------- 0 2.0 3.0 32 32
- 0.5464 2 3 cbr 1000 ------- 0 2.0 3.0 82 82
+ 0.546667 2 3 cbr 1000 ------- 0 2.0 3.0 140 140
+ 0.547 2 3 cbr 1000 ------- 0 2.0 3.0 141 141
d 0.547 2 3 cbr 1000 ------- 0 2.0 3.0 141 141
r 0.5472 2 3 cbr 1000 ------- 0 2.0 3.0 33 33
- 0.5472 2 3 cbr 1000 ------- 0 2.0 3.0 85 85
+ 0.547333 2 3 cbr 1000 ------- 0 2.0 3.0 142 142
+ 0.547667 2 3 cbr 1000 ------- 0 2.0 3.0 143 143
d 0.547667 2 3 cbr 1000 ------- 0 2.0 3.0 143 143
+ 0.548 2 3 cbr 1000 ------- 0 2.0 3.0 144 144
d 0.548 2 3 cbr 1000 ------- 0 2.0 3.0 144 144
r 0.548 2 3 cbr 1000 ------- 0 2.0 3.0 34 34
- 0.548 2 3 cbr 1000 ------- 0 2.0 3.0 87 87
+ 0.548333 2 3 cbr 1000 ------- 0 2.0 3.0 145 145
+ 0.548667 2 3 cbr 1000 ------- 0 2.0 3.0 146 146
d 0.548667 2 3 cbr 1000 ------- 0 2.0 3.0 146 146
r 0.5488 2 3 cbr 1000 ------- 0 2.0 3.0 35 35
- 0.5488 2 3 cbr 1000 ------- 0 2.0 3.0 89 89
+ 0.549 2 3 cbr 1000 ------- 0 2.0 3.0 147 147
+ 0.549333 2 3 cbr 1000 ------- 0 2.0 3.0 148 148
d 0.549333 2 3 cbr 1000 ------- 0 2.0 3.0 148 148
r 0.5496 2 3 cbr 1000 ------- 0 2.0 3.0 36 36
- 0.5496 2 3 cbr 1000 ------- 0 2.0 3.0 92 92
+ 0.549667 2 3 cbr 1000 ------- 0 2.0 3.0 149 149
+ 0.55 2 3 cbr 1000 ------- 0 2.0 3.0 150 150
d 0.55 2 3 cbr 1000 ------- 0 2.0 3.0 150 150
+ 0.550333 2 3 cbr 1000 ------- 0 2.0 3.0 151 151
d 0.550333 2 3 cbr 1000 ------- 0 2.0 3.0 151 151
r 0.5504 2 3 cbr 1000 ------- 0 2.0 3.0 37 37
- 0.5504 2 3 cbr 1000 ------- 0 2.0 3.0 94 94
+ 0.550667 2 3 cbr 1000 ------- 0 2.0 3.0 152 152
+ 0.551 2 3 cbr 1000 ------- 0 2.0 3.0 153 153
d 0.551 2 3 cbr 1000 ------- 0 2.0 3.0 153 153
r 0.5512 2 3 cbr 1000 ------- 0 2.0 3.0 38 38
- 0.5512 2 3 cbr 1000 ------- 0 2.0 3.0 97 97
+ 0.551333 2 3 cbr 1000 ------- 0 2.0 3.0 154 154
+ 0.551667 2 3 cbr 1000 ------- 0 2.0 3.0 155 155
d 0.551667 2 3 cbr 1000 ------- 0 2.0 3.0 155 155
+ 0.552 2 3 cbr 1000 ------- 0 2.0 3.0 156 156
d 0.552 2 3 cbr 1000 ------- 0 2.0 3.0 156 156
r 0.552 2 3 cbr 1000 ------- 0 2.0 3.0 39 39
- 0.552 2 3 cbr 1000 ------- 0 2.0 3.0 99 99
+ 0.552333 2 3 cbr 1000 ------- 0 2.0 3.0 157 157
+ 0.552667 2 3 cbr 1000 ------- 0 2.0 3.0 158 158
d 0.552667 2 3 cbr 1000 ------- 0 2.0 3.0 158 158
r 0.5528 2 3 cbr 1000 ------- 0 2.0 3.0 40 40
- 0.5528 2 3 cbr 1000 ------- 0 2.0 3.0 101 101
+ 0.553 2 3 cbr 1000 ------- 0 2.0 3.0 159 159
+ 0.553333 2 3 cbr 1000 ------- 0 2.0 3.0 160 160
d 0.553333 2 3 cbr 1000 ------- 0 2.0 3.0 160 160
r 0.5536 2 3 cbr 1000 ------- 0 2.0 3.0 41 41
- 0.5536 2 3 cbr 1000 ------- 0 2.0 3.0 104 104
+ 0.553667 2 3 cbr 1000 ------- 0 2.0 3.0 161 161
+ 0.554 2 3 cbr 1000 ------- 0 2.0 3.0 162 162
d 0.554 2 3 cbr 1000 ------- 0 2.0 3.0 162 162
+ 0.554333 2 3 cbr 1000 ------- 0 2.0 3.0 163 163
d 0.554333 2 3 cbr 1000 ------- 0 2.0 3.0 163 163
r 0.5544 2 3 cbr 1000 ------- 0 2.0 3.0 44 44
- 0.5544 2 3 cbr 1000 ------- 0 2.0 3.0 106 106
+ 0.554667 2 3 cbr 1000 ------- 0 2.0 3.0 164 164
+ 0.555 2 3 cbr 1000 ------- 0 2.0 3.0 165 165
d 0.555 2 3 cbr 1000 ------- 0 2.0 3.0 165 165
r 0.5552 2 3 cbr 1000 ------- 0 2.0 3.0 46 46
- 0.5552 2 3 cbr 1000 ------- 0 2.0 3.0 109 109
+ 0.555333 2 3 cbr 1000 ------- 0 2.0 3.0 166 166
+ 0.555667 2 3 cbr 1000 ------- 0 2.0 3.0 167 167
d 0.555667 2 3 cbr 1000 ------- 0 2.0 3.0 167 167
+ 0.556 2 3 cbr 1000 ------- 0 2.0 3.0 168 168
d 0.556 2 3 cbr 1000 ------- 0 2.0 3.0 168 168
r 0.556 2 3 cbr 1000 ------- 0 2.0 3.0 49 49
- 0.556 2 3 cbr 1000 ------- 0 2.0 3.0 111 111
+ 0.556333 2 3 cbr 1000 ------- 0 2.0 3.0 169 169
+ 0.556667 2 3 cbr 1000 ------- 0 2.0 3.0 170 170
d 0.556667 2 3 cbr 1000 ------- 0 2.0 3.0 170 170
r 0.5568 2 3 cbr 1000 ------- 0 2.0 3.0 51 51
- 0.5568 2 3 cbr 1000 ------- 0 2.0 3.0 113 113
+ 0.557 2 3 cbr 1000 ------- 0 2.0 3.0 171 171
+ 0.557333 2 3 cbr 1000 ------- 0 2.0 3.0 172 172
d 0.557333 2 3 cbr 1000 ------- 0 2.0 3.0 172 172
r 0.5576 2 3 cbr 1000 ------- 0 2.0 3.0 53 53
- 0.5576 2 3 cbr 1000 ------- 0 2.0 3.0 116 116
+ 0.557667 2 3 cbr 1000 ------- 0 2.0 3.0 173 173
+ 0.558 2 3 cbr 1000 ------- 0 2.0 3.0 174 174
d 0.558 2 3 cbr 1000 ------- 0 2.0 3.0 174 174
+ 0.558333 2 3 cbr 1000 ------- 0 2.0 3.0 175 175
d 0.558333 2 3 cbr 1000 ------- 0 2.0 3.0 175 175
r 0.5584 2 3 cbr 1000 ------- 0 2.0 3.0 56 56
- 0.5584 2 3 cbr 1000 ------- 0 2.0 3.0 118 118
+ 0.558667 2 3 cbr 1000 ------- 0 2.0 3.0 176 176
+ 0.559 2 3 cbr 1000 ------- 0 2.0 3.0 177 177
d 0.559 2 3 cbr 1000 ------- 0 2.0 3.0 177 177
r 0.5592 2 3 cbr 1000 ------- 0 2.0 3.0 58 58
- 0.5592 2 3 cbr 1000 ------- 0 2.0 3.0 121 121
+ 0.559333 2 3 cbr 1000 ------- 0 2.0 3.0 178 178
+ 0.559667 2 3 cbr 1000 ------- 0 2.0 3.0 179 179
d 0.559667 2 3 cbr 1000 ------- 0 2.0 3.0 179 179
+ 0.56 2 3 cbr 1000 ------- 0 2.0 3.0 180 180
d 0.56 2 3 cbr 1000 ------- 0 2.0 3.0 180 180
r 0.56 2 3 cbr 1000 ------- 0 2.0 3.0 61 61
- 0.56 2 3 cbr 1000 ------- 0 2.0 3.0 123 123
+ 0.560333 2 3 cbr 1000 ------- 0 2.0 3.0 181 181
+ 0.560667 2 3 cbr 1000 ------- 0 2.0 3.0 182 182
d 0.560667 2 3 cbr 1000 ------- 0 2.0 3.0 182 182
r 0.5608 2 3 cbr 1000 ------- 0 2.0 3.0 63 63
- 0.5608 2 3 cbr 1000 ------- 0 2.0 3.0 125 125
+ 0.561 2 3 cbr 1000 ------- 0 2.0 3.0 183 183
+ 0.561333 2 3 cbr 1000 ------- 0 2.0 3.0 184 184
d 0.561333 2 3 cbr 1000 ------- 0 2.0 3.0 184 184
r 0.5616 2 3 cbr 1000 ------- 0 2.0 3.0 65 65
- 0.5616 2 3 cbr 1000 ------- 0 2.0 3.0 128 128
+ 0.561667 2 3 cbr 1000 ------- 0 2.0 3.0 185 185
+ 0.562 2 3 cbr 1000 ------- 0 2.0 3.0 186 186
d 0.562 2 3 cbr 1000 ------- 0 2.0 3.0 186 186
+ 0.562333 2 3 cbr 1000 ------- 0 2.0 3.0 187 187
d 0.562333 2 3 cbr 1000 ------- 0 2.0 3.0 187 187
r 0.5624 2 3 cbr 1000 ------- 0 2.0 3.0 68 68
- 0.5624 2 3 cbr 1000 ------- 0 2.0 3.0 130 130
+ 0.562667 2 3 cbr 1000 ------- 0 2.0 3.0 188 188
+ 0.563 2 3 cbr 1000 ------- 0 2.0 3.0 189 189
d 0.563 2 3 cbr 1000 ------- 0 2.0 3.0 189 189
r 0.5632 2 3 cbr 1000 ------- 0 2.0 3.0 70 70
- 0.5632 2 3 cbr 1000 ------- 0 2.0 3.0 133 133
+ 0.563333 2 3 cbr 1000 ------- 0 2.0 3.0 190 190
+ 0.563667 2 3 cbr 1000 ------- 0 2.0 3.0 191 191
d 0.563667 2 3 cbr 1000 ------- 0 2.0 3.0 191 191
+ 0.564 2 3 cbr 1000 ------- 0 2.0 3.0 192 192
d 0.564 2 3 cbr 1000 ------- 0 2.0 3.0 192 192
r 0.564 2 3 cbr 1000 ------- 0 2.0 3.0 73 73
- 0.564 2 3 cbr 1000 ------- 0 2.0 3.0 135 135
+ 0.564333 2 3 cbr 1000 ------- 0 2.0 3.0 193 193
+ 0.564667 2 3 cbr 1000 ------- 0 2.0 3.0 194 194
d 0.564667 2 3 cbr 1000 ------- 0 2.0 3.0 194 194
r 0.5648 2 3 cbr 1000 ------- 0 2.0 3.0 75 75
- 0.5648 2 3 cbr 1000 ------- 0 2.0 3.0 137 137
+ 0.565 2 3 cbr 1000 ------- 0 2.0 3.0 195 195
+ 0.565333 2 3 cbr 1000 ------- 0 2.0 3.0 196 196
d 0.565333 2 3 cbr 1000 ------- 0 2.0 3.0 196 196
r 0.5656 2 3 cbr 1000 ------- 0 2.0 3.0 77 77
- 0.5656 2 3 cbr 1000 ------- 0 2.0 3.0 140 140
+ 0.565667 2 3 cbr 1000 ------- 0 2.0 3.0 197 197
+ 0.566 2 3 cbr 1000 ------- 0 2.0 3.0 198 198
d 0.566 2 3 cbr 1000 ------- 0 2.0 3.0 198 198
+ 0.566333 2 3 cbr 1000 ------- 0 2.0 3.0 199 199
d 0.566333 2 3 cbr 1000 ------- 0 2.0 3.0 199 199
r 0.5664 2 3 cbr 1000 ------- 0 2.0 3.0 80 80
- 0.5664 2 3 cbr 1000 ------- 0 2.0 3.0 142 142
+ 0.566667 2 3 cbr 1000 ------- 0 2.0 3.0 200 200
+ 0.567 2 3 cbr 1000 ------- 0 2.0 3.0 201 201
d 0.567 2 3 cbr 1000 ------- 0 2.0 3.0 201 201
r 0.5672 2 3 cbr 1000 ------- 0 2.0 3.0 82 82
- 0.5672 2 3 cbr 1000 ------- 0 2.0 3.0 145 145
+ 0.567333 2 3 cbr 1000 ------- 0 2.0 3.0 202 202
+ 0.567667 2 3 cbr 1000 ------- 0 2.0 3.0 203 203
d 0.567667 2 3 cbr 1000 ------- 0 2.0 3.0 203 203
+ 0.568 2 3 cbr 1000 ------- 0 2.0 3.0 204 204
d 0.568 2 3 cbr 1000 ------- 0 2.0 3.0 204 204
r 0.568 2 3 cbr 1000 ------- 0 2.0 3.0 85 85
- 0.568 2 3 cbr 1000 ------- 0 2.0 3.0 147 147
+ 0.568333 2 3 cbr 1000 ------- 0 2.0 3.0 205 205
+ 0.568667 2 3 cbr 1000 ------- 0 2.0 3.0 206 206
d 0.568667 2 3 cbr 1000 ------- 0 2.0 3.0 206 206
r 0.5688 2 3 cbr 1000 ------- 0 2.0 3.0 87 87
- 0.5688 2 3 cbr 1000 ------- 0 2.0 3.0 149 149
+ 0.569 2 3 cbr 1000 ------- 0 2.0 3.0 207 207
+ 0.569333 2 3 cbr 1000 ------- 0 2.0 3.0 208 208
d 0.569333 2 3 cbr 1000 ------- 0 2.0 3.0 208 208
r 0.5696 2 3 cbr 1000 ------- 0 2.0 3.0 89 89
- 0.5696 2 3 cbr 1000 ------- 0 2.0 3.0 152 152
+ 0.569667 2 3 cbr 1000 ------- 0 2.0 3.0 209 209
+ 0.57 2 3 cbr 1000 ------- 0 2.0 3.0 210 210
d 0.57 2 3 cbr 1000 ------- 0 2.0 3.0 210 210
+ 0.570333 2 3 cbr 1000 ------- 0 2.0 3.0 211 211
d 0.570333 2 3 cbr 1000 ------- 0 2.0 3.0 211 211
r 0.5704 2 3 cbr 1000 ------- 0 2.0 3.0 92 92
- 0.5704 2 3 cbr 1000 ------- 0 2.0 3.0 154 154
+ 0.570667 2 3 cbr 1000 ------- 0 2.0 3.0 212 212
+ 0.571 2 3 cbr 1000 ------- 0 2.0 3.0 213 213
d 0.571 2 3 cbr 1000 ------- 0 2.0 3.0 213 213
r 0.5712 2 3 cbr 1000 ------- 0 2.0 3.0 94 94
- 0.5712 2 3 cbr 1000 ------- 0 2.0 3.0 157 157
+ 0.571333 2 3 cbr 1000 ------- 0 2.0 3.0 214 214
+ 0.571667 2 3 cbr 1000 ------- 0 2.0 3.0 215 215
d 0.571667 2 3 cbr 1000 ------- 0 2.0 3.0 215 215
+ 0.572 2 3 cbr 1000 ------- 0 2.0 3.0 216 216
d 0.572 2 3 cbr 1000 ------- 0 2.0 3.0 216 216
r 0.572 2 3 cbr 1000 ------- 0 2.0 3.0 97 97
- 0.572 2 3 cbr 1000 ------- 0 2.0 3.0 159 159
+ 0.572333 2 3 cbr 1000 ------- 0 2.0 3.0 217 217
+ 0.572667 2 3 cbr 1000 ------- 0 2.0 3.0 218 218
d 0.572667 2 3 cbr 1000 ------- 0 2.0 3.0 218 218
r 0.5728 2 3 cbr 1000 ------- 0 2.0 3.0 99 99
- 0.5728 2 3 cbr 1000 ------- 0 2.0 3.0 161 161
+ 0.573 2 3 cbr 1000 ------- 0 2.0 3.0 219 219
+ 0.573333 2 3 cbr 1000 ------- 0 2.0 3.0 220 220
d 0.573333 2 3 cbr 1000 ------- 0 2.0 3.0 220 220
r 0.5736 2 3 cbr 1000 ------- 0 2.0 3.0 101 101
- 0.5736 2 3 cbr 1000 ------- 0 2.0 3.0 164 164
+ 0.573667 2 3 cbr 1000 ------- 0 2.0 3.0 221 221
+ 0.574 2 3 cbr 1000 ------- 0 2.0 3.0 222 222
d 0.574 2 3 cbr 1000 ------- 0 2.0 3.0 222 222
+ 0.574333 2 3 cbr 1000 ------- 0 2.0 3.0 223 223
d 0.574333 2 3 cbr 1000 ------- 0 2.0 3.0 223 223
r 0.5744 2 3 cbr 1000 ------- 0 2.0 3.0 104 104
- 0.5744 2 3 cbr 1000 ------- 0 2.0 3.0 166 166
+ 0.574667 2 3 cbr 1000 ------- 0 2.0 3.0 224 224
+ 0.575 2 3 cbr 1000 ------- 0 2.0 3.0 225 225
d 0.575 2 3 cbr 1000 ------- 0 2.0 3.0 225 225
r 0.5752 2 3 cbr 1000 ------- 0 2.0 3.0 106 106
- 0.5752 2 3 cbr 1000 ------- 0 2.0 3.0 169 169
+ 0.575333 2 3 cbr 1000 ------- 0 2.0 3.0 226 226
+ 0.575667 2 3 cbr 1000 ------- 0 2.0 3.0 227 227
d 0.575667 2 3 cbr 1000 ------- 0 2.0 3.0 227 227
+ 0.576 2 3 cbr 1000 ------- 0 2.0 3.0 228 228
d 0.576 2 3 cbr 1000 ------- 0 2.0 3.0 228 228
r 0.576 2 3 cbr 1000 ------- 0 2.0 3.0 109 109
- 0.576 2 3 cbr 1000 ------- 0 2.0 3.0 171 171
+ 0.576333 2 3 cbr 1000 ------- 0 2.0 3.0 229 229
+ 0.576667 2 3 cbr 1000 ------- 0 2.0 3.0 230 230
d 0.576667 2 3 cbr 1000 ------- 0 2.0 3.0 230 230
r 0.5768 2 3 cbr 1000 ------- 0 2.0 3.0 111 111
- 0.5768 2 3 cbr 1000 ------- 0 2.0 3.0 173 173
+ 0.577 2 3 cbr 1000 ------- 0 2.0 3.0 231 231
+ 0.577333 2 3 cbr 1000 ------- 0 2.0 3.0 232 232
d 0.577333 2 3 cbr 1000 ------- 0 2.0 3.0 232 232
r 0.5776 2 3 cbr 1000 ------- 0 2.0 3.0 113 113
- 0.5776 2 3 cbr 1000 ------- 0 2.0 3.0 176 176
+ 0.577667 2 3 cbr 1000 ------- 0 2.0 3.0 233 233
+ 0.578 2 3 cbr 1000 ------- 0 2.0 3.0 234 234
d 0.578 2 3 cbr 1000 ------- 0 2.0 3.0 234 234
+ 0.578333 2 3 cbr 1000 ------- 0 2.0 3.0 235 235
d 0.578333 2 3 cbr 1000 ------- 0 2.0 3.0 235 235
r 0.5784 2 3 cbr 1000 ------- 0 2.0 3.0 116 116
- 0.5784 2 3 cbr 1000 ------- 0 2.0 3.0 178 178
+ 0.578667 2 3 cbr 1000 ------- 0 2.0 3.0 236 236
+ 0.579 2 3 cbr 1000 ------- 0 2.0 3.0 237 237
d 0.579 2 3 cbr 1000 ------- 0 2.0 3.0 237 237
r 0.5792 2 3 cbr 1000 ------- 0 2.0 3.0 118 118
- 0.5792 2 3 cbr 1000 ------- 0 2.0 3.0 181 181
+ 0.579333 2 3 cbr 1000 ------- 0 2.0 3.0 238 238
+ 0.579667 2 3 cbr 1000 ------- 0 2.0 3.0 239 239
d 0.579667 2 3 cbr 1000 ------- 0 2.0 3.0 239 239
+ 0.58 2 3 cbr 1000 ------- 0 2.0 3.0 240 240
d 0.58 2 3 cbr 1000 ------- 0 2.0 3.0 240 240
r 0.58 2 3 cbr 1000 ------- 0 2.0 3.0 121 121
- 0.58 2 3 cbr 1000 ------- 0 2.0 3.0 183 183
+ 0.580333 2 3 cbr 1000 ------- 0 2.0 3.0 241 241
+ 0.580667 2 3 cbr 1000 ------- 0 2.0 3.0 242 242
d 0.580667 2 3 cbr 1000 ------- 0 2.0 3.0 242 242
r 0.5808 2 3 cbr 1000 ------- 0 2.0 3.0 123 123
- 0.5808 2 3 cbr 1000 ------- 0 2.0 3.0 185 185
+ 0.581 2 3 cbr 1000 ------- 0 2.0 3.0 243 243
+ 0.581333 2 3 cbr 1000 ------- 0 2.0 3.0 244 244
d 0.581333 2 3 cbr 1000 ------- 0 2.0 3.0 244 244
r 0.5816 2 3 cbr 1000 ------- 0 2.0 3.0 125 125
- 0.5816 2 3 cbr 1000 ------- 0 2.0 3.0 188 188
+ 0.581667 2 3 cbr 1000 ------- 0 2.0 3.0 245 245
+ 0.582 2 3 cbr 1000 ------- 0 2.0 3.0 246 246
d 0.582 2 3 cbr 1000 ------- 0 2.0 3.0 246 246
+ 0.582333 2 3 cbr 1000 ------- 0 2.0 3.0 247 247
d 0.582333 2 3 cbr 1000 ------- 0 2.0 3.0 247 247
r 0.5824 2 3 cbr 1000 ------- 0 2.0 3.0 128 128
- 0.5824 2 3 cbr 1000 ------- 0 2.0 3.0 190 190
+ 0.582667 2 3 cbr 1000 ------- 0 2.0 3.0 248 248
+ 0.583 2 3 cbr 1000 ------- 0 2.0 3.0 249 249
d 0.583 2 3 cbr 1000 ------- 0 2.0 3.0 249 249
r 0.5832 2 3 cbr 1000 ------- 0 2.0 3.0 130 130
- 0.5832 2 3 cbr 1000 ------- 0 2.0 3.0 193 193
+ 0.583333 2 3 cbr 1000 ------- 0 2.0 3.0 250 250
+ 0.583667 2 3 cbr 1000 ------- 0 2.0 3.0 251 251
d 0.583667 2 3 cbr 1000 ------- 0 2.0 3.0 251 251
+ 0.584 2 3 cbr 1000 ------- 0 2.0 3.0 252 252
d 0.584 2 3 cbr 1000 ------- 0 2.0 3.0 252 252
r 0.584 2 3 cbr 1000 ------- 0 2.0 3.0 133 133
- 0.584 2 3 cbr 1000 ------- 0 2.0 3.0 195 195
+ 0.584333 2 3 cbr 1000 ------- 0 2.0 3.0 253 253
+ 0.584667 2 3 cbr 1000 ------- 0 2.0 3.0 254 254
d 0.584667 2 3 cbr 1000 ------- 0 2.0 3.0 254 254
r 0.5848 2 3 cbr 1000 ------- 0 2.0 3.0 135 135
- 0.5848 2 3 cbr 1000 ------- 0 2.0 3.0 197 197
+ 0.585 2 3 cbr 1000 ------- 0 2.0 3.0 255 255
+ 0.585333 2 3 cbr 1000 ------- 0 2.0 3.0 256 256
d 0.585333 2 3 cbr 1000 ------- 0 2.0 3.0 256 256
r 0.5856 2 3 cbr 1000 ------- 0 2.0 3.0 137 137
- 0.5856 2 3 cbr 1000 ------- 0 2.0 3.0 200 200
+ 0.585667 2 3 cbr 1000 ------- 0 2.0 3.0 257 257
+ 0.586 2 3 cbr 1000 ------- 0 2.0 3.0 258 258
d 0.586 2 3 cbr 1000 ------- 0 2.0 3.0 258 258
+ 0.586333 2 3 cbr 1000 ------- 0 2.0 3.0 259 259
d 0.586333 2 3 cbr 1000 ------- 0 2.0 3.0 259 259
r 0.5864 2 3 cbr 1000 ------- 0 2.0 3.0 140 140
- 0.5864 2 3 cbr 1000 ------- 0 2.0 3.0 202 202
+ 0.586667 2 3 cbr 1000 ------- 0 2.0 3.0 260 260
+ 0.587 2 3 cbr 1000 ------- 0 2.0 3.0 261 261
d 0.587 2 3 cbr 1000 ------- 0 2.0 3.0 261 261
r 0.5872 2 3 cbr 1000 ------- 0 2.0 3.0 142 142
- 0.5872 2 3 cbr 1000 ------- 0 2.0 3.0 205 205
+ 0.587333 2 3 cbr 1000 ------- 0 2.0 3.0 262 262
+ 0.587667 2 3 cbr 1000 ------- 0 2.0 3.0 263 263
d 0.587667 2 3 cbr 1000 ------- 0 2.0 3.0 263 263
+ 0.588 2 3 cbr 1000 ------- 0 2.0 3.0 264 264
d 0.588 2 3 cbr 1000 ------- 0 2.0 3.0 264 264
r 0.588 2 3 cbr 1000 ------- 0 2.0 3.0 145 145
- 0.588 2 3 cbr 1000 ------- 0 2.0 3.0 207 207
+ 0.588333 2 3 cbr 1000 ------- 0 2.0 3.0 265 265
+ 0.588667 2 3 cbr 1000 ------- 0 2.0 3.0 266 266
d 0.588667 2 3 cbr 1000 ------- 0 2.0 3.0 266 266
r 0.5888 2 3 cbr 1000 ------- 0 2.0 3.0 147 147
- 0.5888 2 3 cbr 1000 ------- 0 2.0 3.0 209 209
+ 0.589 2 3 cbr 1000 ------- 0 2.0 3.0 267 267
+ 0.589333 2 3 cbr 1000 ------- 0 2.0 3.0 268 268
d 0.589333 2 3 cbr 1000 ------- 0 2.0 3.0 268 268
r 0.5896 2 3 cbr 1000 ------- 0 2.0 3.0 149 149
- 0.5896 2 3 cbr 1000 ------- 0 2.0 3.0 212 212
+ 0.589667 2 3 cbr 1000 ------- 0 2.0 3.0 269 269
+ 0.59 2 3 cbr 1000 ------- 0 2.0 3.0 270 270
d 0.59 2 3 cbr 1000 ------- 0 2.0 3.0 270 270
+ 0.590333 2 3 cbr 1000 ------- 0 2.0 3.0 271 271
d 0.590333 2 3 cbr 1000 ------- 0 2.0 3.0 271 271
r 0.5904 2 3 cbr 1000 ------- 0 2.0 3.0 152 152
- 0.5904 2 3 cbr 1000 ------- 0 2.0 3.0 214 214
+ 0.590667 2 3 cbr 1000 ------- 0 2.0 3.0 272 272
+ 0.591 2 3 cbr 1000 ------- 0 2.0 3.0 273 273
d 0.591 2 3 cbr 1000 ------- 0 2.0 3.0 273 273
r 0.5912 2 3 cbr 1000 ------- 0 2.0 3.0 154 154
- 0.5912 2 3 cbr 1000 ------- 0 2.0 3.0 217 217
+ 0.591333 2 3 cbr 1000 ------- 0 2.0 3.0 274 274
+ 0.591667 2 3 cbr 1000 ------- 0 2.0 3.0 275 275
d 0.591667 2 3 cbr 1000 ------- 0 2.0 3.0 275 275
+ 0.592 2 3 cbr 1000 ------- 0 2.0 3.0 276 276
d 0.592 2 3 cbr 1000 ------- 0 2.0 3.0 276 276
r 0.592 2 3 cbr 1000 ------- 0 2.0 3.0 157 157
- 0.592 2 3 cbr 1000 ------- 0 2.0 3.0 219 219
+ 0.592333 2 3 cbr 1000 ------- 0 2.0 3.0 277 277
+ 0.592667 2 3 cbr 1000 ------- 0 2.0 3.0 278 278
d 0.592667 2 3 cbr 1000 ------- 0 2.0 3.0 278 278
r 0.5928 2 3 cbr 1000 ------- 0 2.0 3.0 159 159
- 0.5928 2 3 cbr 1000 ------- 0 2.0 3.0 221 221
+ 0.593 2 3 cbr 1000 ------- 0 2.0 3.0 279 279
+ 0.593333 2 3 cbr 1000 ------- 0 2.0 3.0 280 280
d 0.593333 2 3 cbr 1000 ------- 0 2.0 3.0 280 280
r 0.5936 2 3 cbr 1000 ------- 0 2.0 3.0 161 161