+ 0.5 2 3 cbr 1000 ------- 0 2.0 3.0 0 0
- 0.5 2 3 cbr 1000 ------- 0 2.0 3.0 0 0
+ 0.501 2 3 cbr 1000 ------- 0 2.0 3.0 1 1
- 0.501 2 3 cbr 1000 ------- 0 2.0 3.0 1 1
+ 0.502 2 3 cbr 1000 ------- 0 2.0 3.0 2 2
- 0.502 2 3 cbr 1000 ------- 0 2.0 3.0 2 2
+ 0.503 2 3 cbr 1000 ------- 0 2.0 3.0 3 3
- 0.503 2 3 cbr 1000 ------- 0 2.0 3.0 3 3
+ 0.504 2 3 cbr 1000 ------- 0 2.0 3.0 4 4
- 0.504 2 3 cbr 1000 ------- 0 2.0 3.0 4 4
+ 0.505 2 3 cbr 1000 ------- 0 2.0 3.0 5 5
- 0.505 2 3 cbr 1000 ------- 0 2.0 3.0 5 5
+ 0.506 2 3 cbr 1000 ------- 0 2.0 3.0 6 6
- 0.506 2 3 cbr 1000 ------- 0 2.0 3.0 6 6
+ 0.507 2 3 cbr 1000 ------- 0 2.0 3.0 7 7
- 0.507 2 3 cbr 1000 ------- 0 2.0 3.0 7 7
+ 0.508 2 3 cbr 1000 ------- 0 2.0 3.0 8 8
- 0.508 2 3 cbr 1000 ------- 0 2.0 3.0 8 8
+ 0.509 2 3 cbr 1000 ------- 0 2.0 3.0 9 9
- 0.509 2 3 cbr 1000 ------- 0 2.0 3.0 9 9
+ 0.51 2 3 cbr 1000 ------- 0 2.0 3.0 10 10
- 0.51 2 3 cbr 1000 ------- 0 2.0 3.0 10 10
+ 0.511 2 3 cbr 1000 ------- 0 2.0 3.0 11 11
- 0.511 2 3 cbr 1000 ------- 0 2.0 3.0 11 11
+ 0.512 2 3 cbr 1000 ------- 0 2.0 3.0 12 12
- 0.512 2 3 cbr 1000 ------- 0 2.0 3.0 12 12
+ 0.513 2 3 cbr 1000 ------- 0 2.0 3.0 13 13
- 0.513 2 3 cbr 1000 ------- 0 2.0 3.0 13 13
+ 0.514 2 3 cbr 1000 ------- 0 2.0 3.0 14 14
- 0.514 2 3 cbr 1000 ------- 0 2.0 3.0 14 14
+ 0.515 2 3 cbr 1000 ------- 0 2.0 3.0 15 15
- 0.515 2 3 cbr 1000 ------- 0 2.0 3.0 15 15
+ 0.516 2 3 cbr 1000 ------- 0 2.0 3.0 16 16
- 0.516 2 3 cbr 1000 ------- 0 2.0 3.0 16 16
+ 0.517 2 3 cbr 1000 ------- 0 2.0 3.0 17 17
- 0.517 2 3 cbr 1000 ------- 0 2.0 3.0 17 17
+ 0.518 2 3 cbr 1000 ------- 0 2.0 3.0 18 18
- 0.518 2 3 cbr 1000 ------- 0 2.0 3.0 18 18
+ 0.519 2 3 cbr 1000 ------- 0 2.0 3.0 19 19
- 0.519 2 3 cbr 1000 ------- 0 2.0 3.0 19 19
+ 0.52 2 3 cbr 1000 ------- 0 2.0 3.0 20 20
- 0.52 2 3 cbr 1000 ------- 0 2.0 3.0 20 20
r 0.5208 2 3 cbr 1000 ------- 0 2.0 3.0 0 0
+ 0.521 2 3 cbr 1000 ------- 0 2.0 3.0 21 21
- 0.521 2 3 cbr 1000 ------- 0 2.0 3.0 21 21
r 0.5218 2 3 cbr 1000 ------- 0 2.0 3.0 1 1
+ 0.522 2 3 cbr 1000 ------- 0 2.0 3.0 22 22
- 0.522 2 3 cbr 1000 ------- 0 2.0 3.0 22 22
r 0.5228 2 3 cbr 1000 ------- 0 2.0 3.0 2 2
+ 0.523 2 3 cbr 1000 ------- 0 2.0 3.0 23 23
- 0.523 2 3 cbr 1000 ------- 0 2.0 3.0 23 23
r 0.5238 2 3 cbr 1000 ------- 0 2.0 3.0 3 3
+ 0.524 2 3 cbr 1000 ------- 0 2.0 3.0 24 24
- 0.524 2 3 cbr 1000 ------- 0 2.0 3.0 24 24
r 0.5248 2 3 cbr 1000 ------- 0 2.0 3.0 4 4
+ 0.525 2 3 cbr 1000 ------- 0 2.0 3.0 25 25
- 0.525 2 3 cbr 1000 ------- 0 2.0 3.0 25 25
r 0.5258 2 3 cbr 1000 ------- 0 2.0 3.0 5 5
+ 0.526 2 3 cbr 1000 ------- 0 2.0 3.0 26 26
- 0.526 2 3 cbr 1000 ------- 0 2.0 3.0 26 26
r 0.5268 2 3 cbr 1000 ------- 0 2.0 3.0 6 6
+ 0.527 2 3 cbr 1000 ------- 0 2.0 3.0 27 27
- 0.527 2 3 cbr 1000 ------- 0 2.0 3.0 27 27
r 0.5278 2 3 cbr 1000 ------- 0 2.0 3.0 7 7
+ 0.528 2 3 cbr 1000 ------- 0 2.0 3.0 28 28
- 0.528 2 3 cbr 1000 ------- 0 2.0 3.0 28 28
r 0.5288 2 3 cbr 1000 ------- 0 2.0 3.0 8 8
+ 0.529 2 3 cbr 1000 ------- 0 2.0 3.0 29 29
- 0.529 2 3 cbr 1000 ------- 0 2.0 3.0 29 29
r 0.5298 2 3 cbr 1000 ------- 0 2.0 3.0 9 9
+ 0.53 2 3 cbr 1000 ------- 0 2.0 3.0 30 30
- 0.53 2 3 cbr 1000 ------- 0 2.0 3.0 30 30
r 0.5308 2 3 cbr 1000 ------- 0 2.0 3.0 10 10
+ 0.531 2 3 cbr 1000 ------- 0 2.0 3.0 31 31
- 0.531 2 3 cbr 1000 ------- 0 2.0 3.0 31 31
r 0.5318 2 3 cbr 1000 ------- 0 2.0 3.0 11 11
+ 0.532 2 3 cbr 1000 ------- 0 2.0 3.0 32 32
- 0.532 2 3 cbr 1000 ------- 0 2.0 3.0 32 32
r 0.5328 2 3 cbr 1000 ------- 0 2.0 3.0 12 12
+ 0.533 2 3 cbr 1000 ------- 0 2.0 3.0 33 33
- 0.533 2 3 cbr 1000 ------- 0 2.0 3.0 33 33
r 0.5338 2 3 cbr 1000 ------- 0 2.0 3.0 13 13
+ 0.534 2 3 cbr 1000 ------- 0 2.0 3.0 34 34
- 0.534 2 3 cbr 1000 ------- 0 2.0 3.0 34 34
r 0.5348 2 3 cbr 1000 ------- 0 2.0 3.0 14 14
+ 0.535 2 3 cbr 1000 ------- 0 2.0 3.0 35 35
- 0.535 2 3 cbr 1000 ------- 0 2.0 3.0 35 35
r 0.5358 2 3 cbr 1000 ------- 0 2.0 3.0 15 15
+ 0.536 2 3 cbr 1000 ------- 0 2.0 3.0 36 36
- 0.536 2 3 cbr 1000 ------- 0 2.0 3.0 36 36
r 0.5368 2 3 cbr 1000 ------- 0 2.0 3.0 16 16
+ 0.537 2 3 cbr 1000 ------- 0 2.0 3.0 37 37
- 0.537 2 3 cbr 1000 ------- 0 2.0 3.0 37 37
r 0.5378 2 3 cbr 1000 ------- 0 2.0 3.0 17 17
+ 0.538 2 3 cbr 1000 ------- 0 2.0 3.0 38 38
- 0.538 2 3 cbr 1000 ------- 0 2.0 3.0 38 38
r 0.5388 2 3 cbr 1000 ------- 0 2.0 3.0 18 18
+ 0.539 2 3 cbr 1000 ------- 0 2.0 3.0 39 39
- 0.539 2 3 cbr 1000 ------- 0 2.0 3.0 39 39
r 0.5398 2 3 cbr 1000 ------- 0 2.0 3.0 19 19
+ 0.54 2 3 cbr 1000 ------- 0 2.0 3.0 40 40
- 0.54 2 3 cbr 1000 ------- 0 2.0 3.0 40 40
r 0.5408 2 3 cbr 1000 ------- 0 2.0 3.0 20 20
+ 0.541 2 3 cbr 1000 ------- 0 2.0 3.0 41 41
- 0.541 2 3 cbr 1000 ------- 0 2.0 3.0 41 41
r 0.5418 2 3 cbr 1000 ------- 0 2.0 3.0 21 21
+ 0.542 2 3 cbr 1000 ------- 0 2.0 3.0 42 42
- 0.542 2 3 cbr 1000 ------- 0 2.0 3.0 42 42
r 0.5428 2 3 cbr 1000 ------- 0 2.0 3.0 22 22
+ 0.543 2 3 cbr 1000 ------- 0 2.0 3.0 43 43
- 0.543 2 3 cbr 1000 ------- 0 2.0 3.0 43 43
r 0.5438 2 3 cbr 1000 ------- 0 2.0 3.0 23 23
+ 0.544 2 3 cbr 1000 ------- 0 2.0 3.0 44 44
- 0.544 2 3 cbr 1000 ------- 0 2.0 3.0 44 44
r 0.5448 2 3 cbr 1000 ------- 0 2.0 3.0 24 24
+ 0.545 2 3 cbr 1000 ------- 0 2.0 3.0 45 45
- 0.545 2 3 cbr 1000 ------- 0 2.0 3.0 45 45
r 0.5458 2 3 cbr 1000 ------- 0 2.0 3.0 25 25
+ 0.546 2 3 cbr 1000 ------- 0 2.0 3.0 46 46
- 0.546 2 3 cbr 1000 ------- 0 2.0 3.0 46 46
r 0.5468 2 3 cbr 1000 ------- 0 2.0 3.0 26 26
+ 0.547 2 3 cbr 1000 ------- 0 2.0 3.0 47 47
- 0.547 2 3 cbr 1000 ------- 0 2.0 3.0 47 47
r 0.5478 2 3 cbr 1000 ------- 0 2.0 3.0 27 27
+ 0.548 2 3 cbr 1000 ------- 0 2.0 3.0 48 48
- 0.548 2 3 cbr 1000 ------- 0 2.0 3.0 48 48
r 0.5488 2 3 cbr 1000 ------- 0 2.0 3.0 28 28
+ 0.549 2 3 cbr 1000 ------- 0 2.0 3.0 49 49
- 0.549 2 3 cbr 1000 ------- 0 2.0 3.0 49 49
r 0.5498 2 3 cbr 1000 ------- 0 2.0 3.0 29 29
+ 0.55 2 3 cbr 1000 ------- 0 2.0 3.0 50 50
- 0.55 2 3 cbr 1000 ------- 0 2.0 3.0 50 50
r 0.5508 2 3 cbr 1000 ------- 0 2.0 3.0 30 30
+ 0.551 2 3 cbr 1000 ------- 0 2.0 3.0 51 51
- 0.551 2 3 cbr 1000 ------- 0 2.0 3.0 51 51
r 0.5518 2 3 cbr 1000 ------- 0 2.0 3.0 31 31
+ 0.552 2 3 cbr 1000 ------- 0 2.0 3.0 52 52
- 0.552 2 3 cbr 1000 ------- 0 2.0 3.0 52 52
r 0.5528 2 3 cbr 1000 ------- 0 2.0 3.0 32 32
+ 0.553 2 3 cbr 1000 ------- 0 2.0 3.0 53 53
- 0.553 2 3 cbr 1000 ------- 0 2.0 3.0 53 53
r 0.5538 2 3 cbr 1000 ------- 0 2.0 3.0 33 33
+ 0.554 2 3 cbr 1000 ------- 0 2.0 3.0 54 54
- 0.554 2 3 cbr 1000 ------- 0 2.0 3.0 54 54
r 0.5548 2 3 cbr 1000 ------- 0 2.0 3.0 34 34
+ 0.555 2 3 cbr 1000 ------- 0 2.0 3.0 55 55
- 0.555 2 3 cbr 1000 ------- 0 2.0 3.0 55 55
r 0.5558 2 3 cbr 1000 ------- 0 2.0 3.0 35 35
+ 0.556 2 3 cbr 1000 ------- 0 2.0 3.0 56 56
- 0.556 2 3 cbr 1000 ------- 0 2.0 3.0 56 56
r 0.5568 2 3 cbr 1000 ------- 0 2.0 3.0 36 36
+ 0.557 2 3 cbr 1000 ------- 0 2.0 3.0 57 57
- 0.557 2 3 cbr 1000 ------- 0 2.0 3.0 57 57
r 0.5578 2 3 cbr 1000 ------- 0 2.0 3.0 37 37
+ 0.558 2 3 cbr 1000 ------- 0 2.0 3.0 58 58
- 0.558 2 3 cbr 1000 ------- 0 2.0 3.0 58 58
r 0.5588 2 3 cbr 1000 ------- 0 2.0 3.0 38 38
+ 0.559 2 3 cbr 1000 ------- 0 2.0 3.0 59 59
- 0.559 2 3 cbr 1000 ------- 0 2.0 3.0 59 59
r 0.5598 2 3 cbr 1000 ------- 0 2.0 3.0 39 39
+ 0.56 2 3 cbr 1000 ------- 0 2.0 3.0 60 60
- 0.56 2 3 cbr 1000 ------- 0 2.0 3.0 60 60
r 0.5608 2 3 cbr 1000 ------- 0 2.0 3.0 40 40
+ 0.561 2 3 cbr 1000 ------- 0 2.0 3.0 61 61
- 0.561 2 3 cbr 1000 ------- 0 2.0 3.0 61 61
r 0.5618 2 3 cbr 1000 ------- 0 2.0 3.0 41 41
+ 0.562 2 3 cbr 1000 ------- 0 2.0 3.0 62 62
- 0.562 2 3 cbr 1000 ------- 0 2.0 3.0 62 62
r 0.5628 2 3 cbr 1000 ------- 0 2.0 3.0 42 42
+ 0.563 2 3 cbr 1000 ------- 0 2.0 3.0 63 63
- 0.563 2 3 cbr 1000 ------- 0 2.0 3.0 63 63
r 0.5638 2 3 cbr 1000 ------- 0 2.0 3.0 43 43
+ 0.564 2 3 cbr 1000 ------- 0 2.0 3.0 64 64
- 0.564 2 3 cbr 1000 ------- 0 2.0 3.0 64 64
r 0.5648 2 3 cbr 1000 ------- 0 2.0 3.0 44 44
+ 0.565 2 3 cbr 1000 ------- 0 2.0 3.0 65 65
- 0.565 2 3 cbr 1000 ------- 0 2.0 3.0 65 65
r 0.5658 2 3 cbr 1000 ------- 0 2.0 3.0 45 45
+ 0.566 2 3 cbr 1000 ------- 0 2.0 3.0 66 66
- 0.566 2 3 cbr 1000 ------- 0 2.0 3.0 66 66
r 0.5668 2 3 cbr 1000 ------- 0 2.0 3.0 46 46
+ 0.567 2 3 cbr 1000 ------- 0 2.0 3.0 67 67
- 0.567 2 3 cbr 1000 ------- 0 2.0 3.0 67 67
r 0.5678 2 3 cbr 1000 ------- 0 2.0 3.0 47 47
+ 0.568 2 3 cbr 1000 ------- 0 2.0 3.0 68 68
- 0.568 2 3 cbr 1000 ------- 0 2.0 3.0 68 68
r 0.5688 2 3 cbr 1000 ------- 0 2.0 3.0 48 48
+ 0.569 2 3 cbr 1000 ------- 0 2.0 3.0 69 69
- 0.569 2 3 cbr 1000 ------- 0 2.0 3.0 69 69
r 0.5698 2 3 cbr 1000 ------- 0 2.0 3.0 49 49
+ 0.57 2 3 cbr 1000 ------- 0 2.0 3.0 70 70
- 0.57 2 3 cbr 1000 ------- 0 2.0 3.0 70 70
r 0.5708 2 3 cbr 1000 ------- 0 2.0 3.0 50 50
+ 0.571 2 3 cbr 1000 ------- 0 2.0 3.0 71 71
- 0.571 2 3 cbr 1000 ------- 0 2.0 3.0 71 71
r 0.5718 2 3 cbr 1000 ------- 0 2.0 3.0 51 51
+ 0.572 2 3 cbr 1000 ------- 0 2.0 3.0 72 72
- 0.572 2 3 cbr 1000 ------- 0 2.0 3.0 72 72
r 0.5728 2 3 cbr 1000 ------- 0 2.0 3.0 52 52
+ 0.573 2 3 cbr 1000 ------- 0 2.0 3.0 73 73
- 0.573 2 3 cbr 1000 ------- 0 2.0 3.0 73 73
r 0.5738 2 3 cbr 1000 ------- 0 2.0 3.0 53 53
+ 0.574 2 3 cbr 1000 ------- 0 2.0 3.0 74 74
- 0.574 2 3 cbr 1000 ------- 0 2.0 3.0 74 74
r 0.5748 2 3 cbr 1000 ------- 0 2.0 3.0 54 54
+ 0.575 2 3 cbr 1000 ------- 0 2.0 3.0 75 75
- 0.575 2 3 cbr 1000 ------- 0 2.0 3.0 75 75
r 0.5758 2 3 cbr 1000 ------- 0 2.0 3.0 55 55
+ 0.576 2 3 cbr 1000 ------- 0 2.0 3.0 76 76
- 0.576 2 3 cbr 1000 ------- 0 2.0 3.0 76 76
r 0.5768 2 3 cbr 1000 ------- 0 2.0 3.0 56 56
+ 0.577 2 3 cbr 1000 ------- 0 2.0 3.0 77 77
- 0.577 2 3 cbr 1000 ------- 0 2.0 3.0 77 77
r 0.5778 2 3 cbr 1000 ------- 0 2.0 3.0 57 57
+ 0.578 2 3 cbr 1000 ------- 0 2.0 3.0 78 78
- 0.578 2 3 cbr 1000 ------- 0 2.0 3.0 78 78
r 0.5788 2 3 cbr 1000 ------- 0 2.0 3.0 58 58
+ 0.579 2 3 cbr 1000 ------- 0 2.0 3.0 79 79
- 0.579 2 3 cbr 1000 ------- 0 2.0 3.0 79 79
r 0.5798 2 3 cbr 1000 ------- 0 2.0 3.0 59 59
+ 0.58 2 3 cbr 1000 ------- 0 2.0 3.0 80 80
- 0.58 2 3 cbr 1000 ------- 0 2.0 3.0 80 80
r 0.5808 2 3 cbr 1000 ------- 0 2.0 3.0 60 60
+ 0.581 2 3 cbr 1000 ------- 0 2.0 3.0 81 81
- 0.581 2 3 cbr 1000 ------- 0 2.0 3.0 81 81
r 0.5818 2 3 cbr 1000 ------- 0 2.0 3.0 61 61
+ 0.582 2 3 cbr 1000 ------- 0 2.0 3.0 82 82
- 0.582 2 3 cbr 1000 ------- 0 2.0 3.0 82 82
r 0.5828 2 3 cbr 1000 ------- 0 2.0 3.0 62 62
+ 0.583 2 3 cbr 1000 ------- 0 2.0 3.0 83 83
- 0.583 2 3 cbr 1000 ------- 0 2.0 3.0 83 83
r 0.5838 2 3 cbr 1000 ------- 0 2.0 3.0 63 63
+ 0.584 2 3 cbr 1000 ------- 0 2.0 3.0 84 84
- 0.584 2 3 cbr 1000 ------- 0 2.0 3.0 84 84
r 0.5848 2 3 cbr 1000 ------- 0 2.0 3.0 64 64
+ 0.585 2 3 cbr 1000 ------- 0 2.0 3.0 85 85
- 0.585 2 3 cbr 1000 ------- 0 2.0 3.0 85 85
r 0.5858 2 3 cbr 1000 ------- 0 2.0 3.0 65 65
+ 0.586 2 3 cbr 1000 ------- 0 2.0 3.0 86 86
- 0.586 2 3 cbr 1000 ------- 0 2.0 3.0 86 86
r 0.5868 2 3 cbr 1000 ------- 0 2.0 3.0 66 66
+ 0.587 2 3 cbr 1000 ------- 0 2.0 3.0 87 87
- 0.587 2 3 cbr 1000 ------- 0 2.0 3.0 87 87
r 0.5878 2 3 cbr 1000 ------- 0 2.0 3.0 67 67
+ 0.588 2 3 cbr 1000 ------- 0 2.0 3.0 88 88
- 0.588 2 3 cbr 1000 ------- 0 2.0 3.0 88 88
r 0.5888 2 3 cbr 1000 ------- 0 2.0 3.0 68 68
+ 0.589 2 3 cbr 1000 ------- 0 2.0 3.0 89 89
- 0.589 2 3 cbr 1000 ------- 0 2.0 3.0 89 89
r 0.5898 2 3 cbr 1000 ------- 0 2.0 3.0 69 69
+ 0.59 2 3 cbr 1000 ------- 0 2.0 3.0 90 90
- 0.59 2 3 cbr 1000 ------- 0 2.0 3.0 90 90
r 0.5908 2 3 cbr 1000 ------- 0 2.0 3.0 70 70
+ 0.591 2 3 cbr 1000 ------- 0 2.0 3.0 91 91
- 0.591 2 3 cbr 1000 ------- 0 2.0 3.0 91 91
r 0.5918 2 3 cbr 1000 ------- 0 2.0 3.0 71 71
+ 0.592 2 3 cbr 1000 ------- 0 2.0 3.0 92 92
- 0.592 2 3 cbr 1000 ------- 0 2.0 3.0 92 92
r 0.5928 2 3 cbr 1000 ------- 0 2.0 3.0 72 72
+ 0.593 2 3 cbr 1000 ------- 0 2.0 3.0 93 93
- 0.593 2 3 cbr 1000 ------- 0 2.0 3.0 93 93
r 0.5938 2 3 cbr 1000 ------- 0 2.0 3.0 73 73
+ 0.594 2 3 cbr 1000 ------- 0 2.0 3.0 94 94
- 0.594 2 3 cbr 1000 ------- 0 2.0 3.0 94 94
r 0.5948 2 3 cbr 1000 ------- 0 2.0 3.0 74 74
+ 0.595 2 3 cbr 1000 ------- 0 2.0 3.0 95 95
- 0.595 2 3 cbr 1000 ------- 0 2.0 3.0 95 95
r 0.5958 2 3 cbr 1000 ------- 0 2.0 3.0 75 75
+ 0.596 2 3 cbr 1000 ------- 0 2.0 3.0 96 96
- 0.596 2 3 cbr 1000 ------- 0 2.0 3.0 96 96
r 0.5968 2 3 cbr 1000 ------- 0 2.0 3.0 76 76
+ 0.597 2 3 cbr 1000 ------- 0 2.0 3.0 97 97
- 0.597 2 3 cbr 1000 ------- 0 2.0 3.0 97 97
r 0.5978 2 3 cbr 1000 ------- 0 2.0 3.0 77 77
+ 0.598 2 3 cbr 1000 ------- 0 2.0 3.0 98 98
- 0.598 2 3 cbr 1000 ------- 0 2.0 3.0 98 98
r 0.5988 2 3 cbr 1000 ------- 0 2.0 3.0 78 78
+ 0.599 2 3 cbr 1000 ------- 0 2.0 3.0 99 99
- 0.599 2 3 cbr 1000 ------- 0 2.0 3.0 99 99
r 0.5998 2 3 cbr 1000 ------- 0 2.0 3.0 79 79
+ 0.6 0 2 tcp 40 ------- 1 0.0 4.0 0 100
- 0.6 0 2 tcp 40 ------- 1 0.0 4.0 0 100
+ 0.6 2 3 cbr 1000 ------- 0 2.0 3.0 100 101
- 0.6 2 3 cbr 1000 ------- 0 2.0 3.0 100 101
r 0.6008 2 3 cbr 1000 ------- 0 2.0 3.0 80 80
+ 0.601 2 3 cbr 1000 ------- 0 2.0 3.0 101 102
- 0.601 2 3 cbr 1000 ------- 0 2.0 3.0 101 102
r 0.6018 2 3 cbr 1000 ------- 0 2.0 3.0 81 81
+ 0.602 2 3 cbr 1000 ------- 0 2.0 3.0 102 103
- 0.602 2 3 cbr 1000 ------- 0 2.0 3.0 102 103
r 0.6028 2 3 cbr 1000 ------- 0 2.0 3.0 82 82
+ 0.603 2 3 cbr 1000 ------- 0 2.0 3.0 103 104
- 0.603 2 3 cbr 1000 ------- 0 2.0 3.0 103 104
r 0.6038 2 3 cbr 1000 ------- 0 2.0 3.0 83 83
+ 0.604 2 3 cbr 1000 ------- 0 2.0 3.0 104 105
- 0.604 2 3 cbr 1000 ------- 0 2.0 3.0 104 105
r 0.6048 2 3 cbr 1000 ------- 0 2.0 3.0 84 84
+ 0.605 2 3 cbr 1000 ------- 0 2.0 3.0 105 106
- 0.605 2 3 cbr 1000 ------- 0 2.0 3.0 105 106
r 0.6058 2 3 cbr 1000 ------- 0 2.0 3.0 85 85
+ 0.606 2 3 cbr 1000 ------- 0 2.0 3.0 106 107
- 0.606 2 3 cbr 1000 ------- 0 2.0 3.0 106 107
r 0.6068 2 3 cbr 1000 ------- 0 2.0 3.0 86 86
+ 0.607 2 3 cbr 1000 ------- 0 2.0 3.0 107 108
- 0.607 2 3 cbr 1000 ------- 0 2.0 3.0 107 108
r 0.6078 2 3 cbr 1000 ------- 0 2.0 3.0 87 87
+ 0.608 2 3 cbr 1000 ------- 0 2.0 3.0 108 109
- 0.608 2 3 cbr 1000 ------- 0 2.0 3.0 108 109
r 0.6088 2 3 cbr 1000 ------- 0 2.0 3.0 88 88
+ 0.609 2 3 cbr 1000 ------- 0 2.0 3.0 109 110
- 0.609 2 3 cbr 1000 ------- 0 2.0 3.0 109 110
r 0.6098 2 3 cbr 1000 ------- 0 2.0 3.0 89 89
+ 0.61 2 3 cbr 1000 ------- 0 2.0 3.0 110 111
- 0.61 2 3 cbr 1000 ------- 0 2.0 3.0 110 111
r 0.610032 0 2 tcp 40 ------- 1 0.0 4.0 0 100
+ 0.610032 2 3 tcp 40 ------- 1 0.0 4.0 0 100
r 0.6108 2 3 cbr 1000 ------- 0 2.0 3.0 90 90
- 0.6108 2 3 tcp 40 ------- 1 0.0 4.0 0 100
+ 0.611 2 3 cbr 1000 ------- 0 2.0 3.0 111 112
- 0.611 2 3 cbr 1000 ------- 0 2.0 3.0 111 112
r 0.6118 2 3 cbr 1000 ------- 0 2.0 3.0 91 91
+ 0.612 2 3 cbr 1000 ------- 0 2.0 3.0 112 113
- 0.612 2 3 cbr 1000 ------- 0 2.0 3.0 112 113
r 0.6128 2 3 cbr 1000 ------- 0 2.0 3.0 92 92
+ 0.613 2 3 cbr 1000 ------- 0 2.0 3.0 113 114
- 0.613 2 3 cbr 1000 ------- 0 2.0 3.0 113 114
r 0.6138 2 3 cbr 1000 ------- 0 2.0 3.0 93 93
+ 0.614 2 3 cbr 1000 ------- 0 2.0 3.0 114 115
- 0.614 2 3 cbr 1000 ------- 0 2.0 3.0 114 115
r 0.6148 2 3 cbr 1000 ------- 0 2.0 3.0 94 94
+ 0.615 2 3 cbr 1000 ------- 0 2.0 3.0 115 116
- 0.615 2 3 cbr 1000 ------- 0 2.0 3.0 115 116
r 0.6158 2 3 cbr 1000 ------- 0 2.0 3.0 95 95
+ 0.616 2 3 cbr 1000 ------- 0 2.0 3.0 116 117
- 0.616 2 3 cbr 1000 ------- 0 2.0 3.0 116 117
r 0.6168 2 3 cbr 1000 ------- 0 2.0 3.0 96 96
+ 0.617 2 3 cbr 1000 ------- 0 2.0 3.0 117 118
- 0.617 2 3 cbr 1000 ------- 0 2.0 3.0 117 118
r 0.6178 2 3 cbr 1000 ------- 0 2.0 3.0 97 97
+ 0.618 2 3 cbr 1000 ------- 0 2.0 3.0 118 119
- 0.618 2 3 cbr 1000 ------- 0 2.0 3.0 118 119
r 0.6188 2 3 cbr 1000 ------- 0 2.0 3.0 98 98
+ 0.619 2 3 cbr 1000 ------- 0 2.0 3.0 119 120
- 0.619 2 3 cbr 1000 ------- 0 2.0 3.0 119 120
r 0.6198 2 3 cbr 1000 ------- 0 2.0 3.0 99 99
+ 0.62 2 3 cbr 1000 ------- 0 2.0 3.0 120 121
- 0.62 2 3 cbr 1000 ------- 0 2.0 3.0 120 121
r 0.6208 2 3 cbr 1000 ------- 0 2.0 3.0 100 101
+ 0.621 2 3 cbr 1000 ------- 0 2.0 3.0 121 122
- 0.621 2 3 cbr 1000 ------- 0 2.0 3.0 121 122
r 0.6218 2 3 cbr 1000 ------- 0 2.0 3.0 101 102
+ 0.622 2 3 cbr 1000 ------- 0 2.0 3.0 122 123
- 0.622 2 3 cbr 1000 ------- 0 2.0 3.0 122 123
r 0.6228 2 3 cbr 1000 ------- 0 2.0 3.0 102 103
+ 0.623 2 3 cbr 1000 ------- 0 2.0 3.0 123 124
- 0.623 2 3 cbr 1000 ------- 0 2.0 3.0 123 124
r 0.6238 2 3 cbr 1000 ------- 0 2.0 3.0 103 104
+ 0.624 2 3 cbr 1000 ------- 0 2.0 3.0 124 125
- 0.624 2 3 cbr 1000 ------- 0 2.0 3.0 124 125
r 0.6248 2 3 cbr 1000 ------- 0 2.0 3.0 104 105
+ 0.625 2 3 cbr 1000 ------- 0 2.0 3.0 125 126
- 0.625 2 3 cbr 1000 ------- 0 2.0 3.0 125 126
r 0.6258 2 3 cbr 1000 ------- 0 2.0 3.0 105 106
+ 0.626 2 3 cbr 1000 ------- 0 2.0 3.0 126 127
- 0.626 2 3 cbr 1000 ------- 0 2.0 3.0 126 127
r 0.6268 2 3 cbr 1000 ------- 0 2.0 3.0 106 107
+ 0.627 2 3 cbr 1000 ------- 0 2.0 3.0 127 128
- 0.627 2 3 cbr 1000 ------- 0 2.0 3.0 127 128
r 0.6278 2 3 cbr 1000 ------- 0 2.0 3.0 107 108
+ 0.628 2 3 cbr 1000 ------- 0 2.0 3.0 128 129
- 0.628 2 3 cbr 1000 ------- 0 2.0 3.0 128 129
r 0.6288 2 3 cbr 1000 ------- 0 2.0 3.0 108 109
+ 0.629 2 3 cbr 1000 ------- 0 2.0 3.0 129 130
- 0.629 2 3 cbr 1000 ------- 0 2.0 3.0 129 130
r 0.6298 2 3 cbr 1000 ------- 0 2.0 3.0 109 110
+ 0.63 2 3 cbr 1000 ------- 0 2.0 3.0 130 131
- 0.63 2 3 cbr 1000 ------- 0 2.0 3.0 130 131
r 0.6308 2 3 cbr 1000 ------- 0 2.0 3.0 110 111
r 0.630832 2 3 tcp 40 ------- 1 0.0 4.0 0 100
+ 0.630832 3 4 tcp 40 ------- 1 0.0 4.0 0 100
- 0.630832 3 4 tcp 40 ------- 1 0.0 4.0 0 100
+ 0.631 2 3 cbr 1000 ------- 0 2.0 3.0 131 132
- 0.631 2 3 cbr 1000 ------- 0 2.0 3.0 131 132
r 0.6318 2 3 cbr 1000 ------- 0 2.0 3.0 111 112
+ 0.632 2 3 cbr 1000 ------- 0 2.0 3.0 132 133
- 0.632 2 3 cbr 1000 ------- 0 2.0 3.0 132 133
r 0.6328 2 3 cbr 1000 ------- 0 2.0 3.0 112 113
+ 0.633 2 3 cbr 1000 ------- 0 2.0 3.0 133 134
- 0.633 2 3 cbr 1000 ------- 0 2.0 3.0 133 134
r 0.6338 2 3 cbr 1000 ------- 0 2.0 3.0 113 114
+ 0.634 2 3 cbr 1000 ------- 0 2.0 3.0 134 135
- 0.634 2 3 cbr 1000 ------- 0 2.0 3.0 134 135
r 0.6348 2 3 cbr 1000 ------- 0 2.0 3.0 114 115
+ 0.635 2 3 cbr 1000 ------- 0 2.0 3.0 135 136
- 0.635 2 3 cbr 1000 ------- 0 2.0 3.0 135 136
r 0.6358 2 3 cbr 1000 ------- 0 2.0 3.0 115 116
+ 0.636 2 3 cbr 1000 ------- 0 2.0 3.0 136 137
- 0.636 2 3 cbr 1000 ------- 0 2.0 3.0 136 137
r 0.6368 2 3 cbr 1000 ------- 0 2.0 3.0 116 117
+ 0.637 2 3 cbr 1000 ------- 0 2.0 3.0 137 138
- 0.637 2 3 cbr 1000 ------- 0 2.0 3.0 137 138
r 0.6378 2 3 cbr 1000 ------- 0 2.0 3.0 117 118
+ 0.638 2 3 cbr 1000 ------- 0 2.0 3.0 138 139
- 0.638 2 3 cbr 1000 ------- 0 2.0 3.0 138 139
r 0.6388 2 3 cbr 1000 ------- 0 2.0 3.0 118 119
+ 0.639 2 3 cbr 1000 ------- 0 2.0 3.0 139 140
- 0.639 2 3 cbr 1000 ------- 0 2.0 3.0 139 140
r 0.6398 2 3 cbr 1000 ------- 0 2.0 3.0 119 120
+ 0.64 2 3 cbr 1000 ------- 0 2.0 3.0 140 141
- 0.64 2 3 cbr 1000 ------- 0 2.0 3.0 140 141
r 0.6408 2 3 cbr 1000 ------- 0 2.0 3.0 120 121
r 0.640864 3 4 tcp 40 ------- 1 0.0 4.0 0 100
+ 0.640864 4 3 ack 40 ------- 1 4.0 0.0 0 142
- 0.640864 4 3 ack 40 ------- 1 4.0 0.0 0 142
+ 0.641 2 3 cbr 1000 ------- 0 2.0 3.0 141 143
- 0.641 2 3 cbr 1000 ------- 0 2.0 3.0 141 143
r 0.6418 2 3 cbr 1000 ------- 0 2.0 3.0 121 122
+ 0.642 2 3 cbr 1000 ------- 0 2.0 3.0 142 144
- 0.642 2 3 cbr 1000 ------- 0 2.0 3.0 142 144
r 0.6428 2 3 cbr 1000 ------- 0 2.0 3.0 122 123
+ 0.643 2 3 cbr 1000 ------- 0 2.0 3.0 143 145
- 0.643 2 3 cbr 1000 ------- 0 2.0 3.0 143 145
r 0.6438 2 3 cbr 1000 ------- 0 2.0 3.0 123 124
+ 0.644 2 3 cbr 1000 ------- 0 2.0 3.0 144 146
- 0.644 2 3 cbr 1000 ------- 0 2.0 3.0 144 146
r 0.6448 2 3 cbr 1000 ------- 0 2.0 3.0 124 125
+ 0.645 2 3 cbr 1000 ------- 0 2.0 3.0 145 147
- 0.645 2 3 cbr 1000 ------- 0 2.0 3.0 145 147
r 0.6458 2 3 cbr 1000 ------- 0 2.0 3.0 125 126
+ 0.646 2 3 cbr 1000 ------- 0 2.0 3.0 146 148
- 0.646 2 3 cbr 1000 ------- 0 2.0 3.0 146 148
r 0.6468 2 3 cbr 1000 ------- 0 2.0 3.0 126 127
+ 0.647 2 3 cbr 1000 ------- 0 2.0 3.0 147 149
- 0.647 2 3 cbr 1000 ------- 0 2.0 3.0 147 149
r 0.6478 2 3 cbr 1000 ------- 0 2.0 3.0 127 128
+ 0.648 2 3 cbr 1000 ------- 0 2.0 3.0 148 150
- 0.648 2 3 cbr 1000 ------- 0 2.0 3.0 148 150
r 0.6488 2 3 cbr 1000 ------- 0 2.0 3.0 128 129
+ 0.649 2 3 cbr 1000 ------- 0 2.0 3.0 149 151
- 0.649 2 3 cbr 1000 ------- 0 2.0 3.0 149 151
r 0.6498 2 3 cbr 1000 ------- 0 2.0 3.0 129 130
+ 0.65 2 3 cbr 1000 ------- 0 2.0 3.0 150 152
- 0.65 2 3 cbr 1000 ------- 0 2.0 3.0 150 152
r 0.6508 2 3 cbr 1000 ------- 0 2.0 3.0 130 131
r 0.650896 4 3 ack 40 ------- 1 4.0 0.0 0 142
+ 0.650896 3 2 ack 40 ------- 1 4.0 0.0 0 142
- 0.650896 3 2 ack 40 ------- 1 4.0 0.0 0 142
+ 0.651 2 3 cbr 1000 ------- 0 2.0 3.0 151 153
- 0.651 2 3 cbr 1000 ------- 0 2.0 3.0 151 153
r 0.6518 2 3 cbr 1000 ------- 0 2.0 3.0 131 132
+ 0.652 2 3 cbr 1000 ------- 0 2.0 3.0 152 154
- 0.652 2 3 cbr 1000 ------- 0 2.0 3.0 152 154
r 0.6528 2 3 cbr 1000 ------- 0 2.0 3.0 132 133
+ 0.653 2 3 cbr 1000 ------- 0 2.0 3.0 153 155
- 0.653 2 3 cbr 1000 ------- 0 2.0 3.0 153 155
r 0.6538 2 3 cbr 1000 ------- 0 2.0 3.0 133 134
+ 0.654 2 3 cbr 1000 ------- 0 2.0 3.0 154 156
- 0.654 2 3 cbr 1000 ------- 0 2.0 3.0 154 156
r 0.6548 2 3 cbr 1000 ------- 0 2.0 3.0 134 135
+ 0.655 2 3 cbr 1000 ------- 0 2.0 3.0 155 157
- 0.655 2 3 cbr 1000 ------- 0 2.0 3.0 155 157
r 0.6558 2 3 cbr 1000 ------- 0 2.0 3.0 135 136
+ 0.656 2 3 cbr 1000 ------- 0 2.0 3.0 156 158
- 0.656 2 3 cbr 1000 ------- 0 2.0 3.0 156 158
r 0.6568 2 3 cbr 1000 ------- 0 2.0 3.0 136 137
+ 0.657 2 3 cbr 1000 ------- 0 2.0 3.0 157 159
- 0.657 2 3 cbr 1000 ------- 0 2.0 3.0 157 159
r 0.6578 2 3 cbr 1000 ------- 0 2.0 3.0 137 138
+ 0.658 2 3 cbr 1000 ------- 0 2.0 3.0 158 160
- 0.658 2 3 cbr 1000 ------- 0 2.0 3.0 158 160
r 0.6588 2 3 cbr 1000 ------- 0 2.0 3.0 138 139
+ 0.659 2 3 cbr 1000 ------- 0 2.0 3.0 159 161
- 0.659 2 3 cbr 1000 ------- 0 2.0 3.0 159 161
r 0.6598 2 3 cbr 1000 ------- 0 2.0 3.0 139 140
+ 0.66 2 3 cbr 1000 ------- 0 2.0 3.0 160 162
- 0.66 2 3 cbr 1000 ------- 0 2.0 3.0 160 162
r 0.6608 2 3 cbr 1000 ------- 0 2.0 3.0 140 141
+ 0.661 2 3 cbr 1000 ------- 0 2.0 3.0 161 163
- 0.661 2 3 cbr 1000 ------- 0 2.0 3.0 161 163
r 0.6618 2 3 cbr 1000 ------- 0 2.0 3.0 141 143
+ 0.662 2 3 cbr 1000 ------- 0 2.0 3.0 162 164
- 0.662 2 3 cbr 1000 ------- 0 2.0 3.0 162 164
r 0.6628 2 3 cbr 1000 ------- 0 2.0 3.0 142 144
+ 0.663 2 3 cbr 1000 ------- 0 2.0 3.0 163 165
- 0.663 2 3 cbr 1000 ------- 0 2.0 3.0 163 165
r 0.6638 2 3 cbr 1000 ------- 0 2.0 3.0 143 145
+ 0.664 2 3 cbr 1000 ------- 0 2.0 3.0 164 166
- 0.664 2 3 cbr 1000 ------- 0 2.0 3.0 164 166
r 0.6648 2 3 cbr 1000 ------- 0 2.0 3.0 144 146
+ 0.665 2 3 cbr 1000 ------- 0 2.0 3.0 165 167
- 0.665 2 3 cbr 1000 ------- 0 2.0 3.0 165 167
r 0.6658 2 3 cbr 1000 ------- 0 2.0 3.0 145 147
+ 0.666 2 3 cbr 1000 ------- 0 2.0 3.0 166 168
- 0.666 2 3 cbr 1000 ------- 0 2.0 3.0 166 168
r 0.6668 2 3 cbr 1000 ------- 0 2.0 3.0 146 148
+ 0.667 2 3 cbr 1000 ------- 0 2.0 3.0 167 169
- 0.667 2 3 cbr 1000 ------- 0 2.0 3.0 167 169
r 0.6678 2 3 cbr 1000 ------- 0 2.0 3.0 147 149
+ 0.668 2 3 cbr 1000 ------- 0 2.0 3.0 168 170
- 0.668 2 3 cbr 1000 ------- 0 2.0 3.0 168 170
r 0.6688 2 3 cbr 1000 ------- 0 2.0 3.0 148 150
+ 0.669 2 3 cbr 1000 ------- 0 2.0 3.0 169 171
- 0.669 2 3 cbr 1000 ------- 0 2.0 3.0 169 171
r 0.6698 2 3 cbr 1000 ------- 0 2.0 3.0 149 151
+ 0.67 2 3 cbr 1000 ------- 0 2.0 3.0 170 172
- 0.67 2 3 cbr 1000 ------- 0 2.0 3.0 170 172
r 0.6708 2 3 cbr 1000 ------- 0 2.0 3.0 150 152
r 0.670928 3 2 ack 40 ------- 1 4.0 0.0 0 142
+ 0.670928 2 0 ack 40 ------- 1 4.0 0.0 0 142
- 0.670928 2 0 ack 40 ------- 1 4.0 0.0 0 142
+ 0.671 2 3 cbr 1000 ------- 0 2.0 3.0 171 173
- 0.671 2 3 cbr 1000 ------- 0 2.0 3.0 171 173
r 0.6718 2 3 cbr 1000 ------- 0 2.0 3.0 151 153
+ 0.672 2 3 cbr 1000 ------- 0 2.0 3.0 172 174
- 0.672 2 3 cbr 1000 ------- 0 2.0 3.0 172 174
r 0.6728 2 3 cbr 1000 ------- 0 2.0 3.0 152 154
+ 0.673 2 3 cbr 1000 ------- 0 2.0 3.0 173 175
- 0.673 2 3 cbr 1000 ------- 0 2.0 3.0 173 175
r 0.6738 2 3 cbr 1000 ------- 0 2.0 3.0 153 155
+ 0.674 2 3 cbr 1000 ------- 0 2.0 3.0 174 176
- 0.674 2 3 cbr 1000 ------- 0 2.0 3.0 174 176
r 0.6748 2 3 cbr 1000 ------- 0 2.0 3.0 154 156
+ 0.675 2 3 cbr 1000 ------- 0 2.0 3.0 175 177
- 0.675 2 3 cbr 1000 ------- 0 2.0 3.0 175 177
r 0.6758 2 3 cbr 1000 ------- 0 2.0 3.0 155 157
+ 0.676 2 3 cbr 1000 ------- 0 2.0 3.0 176 178
- 0.676 2 3 cbr 1000 ------- 0 2.0 3.0 176 178
r 0.6768 2 3 cbr 1000 ------- 0 2.0 3.0 156 158
+ 0.677 2 3 cbr 1000 ------- 0 2.0 3.0 177 179
- 0.677 2 3 cbr 1000 ------- 0 2.0 3.0 177 179
r 0.6778 2 3 cbr 1000 ------- 0 2.0 3.0 157 159
+ 0.678 2 3 cbr 1000 ------- 0 2.0 3.0 178 180
- 0.678 2 3 cbr 1000 ------- 0 2.0 3.0 178 180
r 0.6788 2 3 cbr 1000 ------- 0 2.0 3.0 158 160
+ 0.679 2 3 cbr 1000 ------- 0 2.0 3.0 179 181
- 0.679 2 3 cbr 1000 ------- 0 2.0 3.0 179 181
r 0.6798 2 3 cbr 1000 ------- 0 2.0 3.0 159 161
+ 0.68 2 3 cbr 1000 ------- 0 2.0 3.0 180 182
- 0.68 2 3 cbr 1000 ------- 0 2.0 3.0 180 182
r 0.6808 2 3 cbr 1000 ------- 0 2.0 3.0 160 162
r 0.68096 2 0 ack 40 ------- 1 4.0 0.0 0 142
+ 0.68096 0 2 tcp 1040 ------- 1 0.0 4.0 1 183
- 0.68096 0 2 tcp 1040 ------- 1 0.0 4.0 1 183
+ 0.68096 0 2 tcp 1040 ------- 1 0.0 4.0 2 184
+ 0.681 2 3 cbr 1000 ------- 0 2.0 3.0 181 185
- 0.681 2 3 cbr 1000 ------- 0 2.0 3.0 181 185
- 0.681792 0 2 tcp 1040 ------- 1 0.0 4.0 2 184
r 0.6818 2 3 cbr 1000 ------- 0 2.0 3.0 161 163
+ 0.682 2 3 cbr 1000 ------- 0 2.0 3.0 182 186
- 0.682 2 3 cbr 1000 ------- 0 2.0 3.0 182 186
r 0.6828 2 3 cbr 1000 ------- 0 2.0 3.0 162 164
+ 0.683 2 3 cbr 1000 ------- 0 2.0 3.0 183 187
- 0.683 2 3 cbr 1000 ------- 0 2.0 3.0 183 187
r 0.6838 2 3 cbr 1000 ------- 0 2.0 3.0 163 165
+ 0.684 2 3 cbr 1000 ------- 0 2.0 3.0 184 188
- 0.684 2 3 cbr 1000 ------- 0 2.0 3.0 184 188
r 0.6848 2 3 cbr 1000 ------- 0 2.0 3.0 164 166
+ 0.685 2 3 cbr 1000 ------- 0 2.0 3.0 185 189
- 0.685 2 3 cbr 1000 ------- 0 2.0 3.0 185 189
r 0.6858 2 3 cbr 1000 ------- 0 2.0 3.0 165 167
+ 0.686 2 3 cbr 1000 ------- 0 2.0 3.0 186 190
- 0.686 2 3 cbr 1000 ------- 0 2.0 3.0 186 190
r 0.6868 2 3 cbr 1000 ------- 0 2.0 3.0 166 168
+ 0.687 2 3 cbr 1000 ------- 0 2.0 3.0 187 191
- 0.687 2 3 cbr 1000 ------- 0 2.0 3.0 187 191
r 0.6878 2 3 cbr 1000 ------- 0 2.0 3.0 167 169
+ 0.688 2 3 cbr 1000 ------- 0 2.0 3.0 188 192
- 0.688 2 3 cbr 1000 ------- 0 2.0 3.0 188 192
r 0.6888 2 3 cbr 1000 ------- 0 2.0 3.0 168 170
+ 0.689 2 3 cbr 1000 ------- 0 2.0 3.0 189 193
- 0.689 2 3 cbr 1000 ------- 0 2.0 3.0 189 193
r 0.6898 2 3 cbr 1000 ------- 0 2.0 3.0 169 171
+ 0.69 2 3 cbr 1000 ------- 0 2.0 3.0 190 194
- 0.69 2 3 cbr 1000 ------- 0 2.0 3.0 190 194
r 0.6908 2 3 cbr 1000 ------- 0 2.0 3.0 170 172
+ 0.691 2 3 cbr 1000 ------- 0 2.0 3.0 191 195
- 0.691 2 3 cbr 1000 ------- 0 2.0 3.0 191 195
r 0.691792 0 2 tcp 1040 ------- 1 0.0 4.0 1 183
+ 0.691792 2 3 tcp 1040 ------- 1 0.0 4.0 1 183
r 0.6918 2 3 cbr 1000 ------- 0 2.0 3.0 171 173
- 0.6918 2 3 tcp 1040 ------- 1 0.0 4.0 1 183
+ 0.692 2 3 cbr 1000 ------- 0 2.0 3.0 192 196
r 0.692624 0 2 tcp 1040 ------- 1 0.0 4.0 2 184
+ 0.692624 2 3 tcp 1040 ------- 1 0.0 4.0 2 184
- 0.692632 2 3 cbr 1000 ------- 0 2.0 3.0 192 196
r 0.6928 2 3 cbr 1000 ------- 0 2.0 3.0 172 174
+ 0.693 2 3 cbr 1000 ------- 0 2.0 3.0 193 197
- 0.693432 2 3 tcp 1040 ------- 1 0.0 4.0 2 184
r 0.6938 2 3 cbr 1000 ------- 0 2.0 3.0 173 175
+ 0.694 2 3 cbr 1000 ------- 0 2.0 3.0 194 198
- 0.694264 2 3 cbr 1000 ------- 0 2.0 3.0 193 197
r 0.6948 2 3 cbr 1000 ------- 0 2.0 3.0 174 176
+ 0.695 2 3 cbr 1000 ------- 0 2.0 3.0 195 199
- 0.695064 2 3 cbr 1000 ------- 0 2.0 3.0 194 198
r 0.6958 2 3 cbr 1000 ------- 0 2.0 3.0 175 177
- 0.695864 2 3 cbr 1000 ------- 0 2.0 3.0 195 199
+ 0.696 2 3 cbr 1000 ------- 0 2.0 3.0 196 200
- 0.696664 2 3 cbr 1000 ------- 0 2.0 3.0 196 200
r 0.6968 2 3 cbr 1000 ------- 0 2.0 3.0 176 178
+ 0.697 2 3 cbr 1000 ------- 0 2.0 3.0 197 201
- 0.697464 2 3 cbr 1000 ------- 0 2.0 3.0 197 201
r 0.6978 2 3 cbr 1000 ------- 0 2.0 3.0 177 179
+ 0.698 2 3 cbr 1000 ------- 0 2.0 3.0 198 202
- 0.698264 2 3 cbr 1000 ------- 0 2.0 3.0 198 202
r 0.6988 2 3 cbr 1000 ------- 0 2.0 3.0 178 180
+ 0.699 2 3 cbr 1000 ------- 0 2.0 3.0 199 203
- 0.699064 2 3 cbr 1000 ------- 0 2.0 3.0 199 203
r 0.6998 2 3 cbr 1000 ------- 0 2.0 3.0 179 181
+ 0.7 2 3 cbr 1000 ------- 0 2.0 3.0 200 204
- 0.7 2 3 cbr 1000 ------- 0 2.0 3.0 200 204
r 0.7008 2 3 cbr 1000 ------- 0 2.0 3.0 180 182
+ 0.701 2 3 cbr 1000 ------- 0 2.0 3.0 201 205
- 0.701 2 3 cbr 1000 ------- 0 2.0 3.0 201 205
r 0.7018 2 3 cbr 1000 ------- 0 2.0 3.0 181 185
+ 0.702 2 3 cbr 1000 ------- 0 2.0 3.0 202 206
- 0.702 2 3 cbr 1000 ------- 0 2.0 3.0 202 206
r 0.7028 2 3 cbr 1000 ------- 0 2.0 3.0 182 186
+ 0.703 2 3 cbr 1000 ------- 0 2.0 3.0 203 207
- 0.703 2 3 cbr 1000 ------- 0 2.0 3.0 203 207
r 0.7038 2 3 cbr 1000 ------- 0 2.0 3.0 183 187
+ 0.704 2 3 cbr 1000 ------- 0 2.0 3.0 204 208
- 0.704 2 3 cbr 1000 ------- 0 2.0 3.0 204 208
r 0.7048 2 3 cbr 1000 ------- 0 2.0 3.0 184 188
+ 0.705 2 3 cbr 1000 ------- 0 2.0 3.0 205 209
- 0.705 2 3 cbr 1000 ------- 0 2.0 3.0 205 209
r 0.7058 2 3 cbr 1000 ------- 0 2.0 3.0 185 189
+ 0.706 2 3 cbr 1000 ------- 0 2.0 3.0 206 210
- 0.706 2 3 cbr 1000 ------- 0 2.0 3.0 206 210
r 0.7068 2 3 cbr 1000 ------- 0 2.0 3.0 186 190
+ 0.707 2 3 cbr 1000 ------- 0 2.0 3.0 207 211
- 0.707 2 3 cbr 1000 ------- 0 2.0 3.0 207 211
r 0.7078 2 3 cbr 1000 ------- 0 2.0 3.0 187 191
+ 0.708 2 3 cbr 1000 ------- 0 2.0 3.0 208 212
- 0.708 2 3 cbr 1000 ------- 0 2.0 3.0 208 212
r 0.7088 2 3 cbr 1000 ------- 0 2.0 3.0 188 192
+ 0.709 2 3 cbr 1000 ------- 0 2.0 3.0 209 213
- 0.709 2 3 cbr 1000 ------- 0 2.0 3.0 209 213
r 0.7098 2 3 cbr 1000 ------- 0 2.0 3.0 189 193
+ 0.71 2 3 cbr 1000 ------- 0 2.0 3.0 210 214
- 0.71 2 3 cbr 1000 ------- 0 2.0 3.0 210 214
r 0.7108 2 3 cbr 1000 ------- 0 2.0 3.0 190 194
+ 0.711 2 3 cbr 1000 ------- 0 2.0 3.0 211 215
- 0.711 2 3 cbr 1000 ------- 0 2.0 3.0 211 215
r 0.7118 2 3 cbr 1000 ------- 0 2.0 3.0 191 195
+ 0.712 2 3 cbr 1000 ------- 0 2.0 3.0 212 216
- 0.712 2 3 cbr 1000 ------- 0 2.0 3.0 212 216
r 0.712632 2 3 tcp 1040 ------- 1 0.0 4.0 1 183
+ 0.712632 3 4 tcp 1040 ------- 1 0.0 4.0 1 183
- 0.712632 3 4 tcp 1040 ------- 1 0.0 4.0 1 183