+ 0.5 2 3 cbr 1000 ------- 0 2.0 3.0 0 0
- 0.5 2 3 cbr 1000 ------- 0 2.0 3.0 0 0
+ 0.5008 2 3 cbr 1000 ------- 0 2.0 3.0 1 1
- 0.5008 2 3 cbr 1000 ------- 0 2.0 3.0 1 1
+ 0.5016 2 3 cbr 1000 ------- 0 2.0 3.0 2 2
- 0.5016 2 3 cbr 1000 ------- 0 2.0 3.0 2 2
+ 0.5024 2 3 cbr 1000 ------- 0 2.0 3.0 3 3
- 0.5024 2 3 cbr 1000 ------- 0 2.0 3.0 3 3
+ 0.5032 2 3 cbr 1000 ------- 0 2.0 3.0 4 4
- 0.5032 2 3 cbr 1000 ------- 0 2.0 3.0 4 4
+ 0.504 2 3 cbr 1000 ------- 0 2.0 3.0 5 5
- 0.504 2 3 cbr 1000 ------- 0 2.0 3.0 5 5
+ 0.5048 2 3 cbr 1000 ------- 0 2.0 3.0 6 6
- 0.5048 2 3 cbr 1000 ------- 0 2.0 3.0 6 6
+ 0.5056 2 3 cbr 1000 ------- 0 2.0 3.0 7 7
- 0.5056 2 3 cbr 1000 ------- 0 2.0 3.0 7 7
+ 0.5064 2 3 cbr 1000 ------- 0 2.0 3.0 8 8
- 0.5064 2 3 cbr 1000 ------- 0 2.0 3.0 8 8
+ 0.5072 2 3 cbr 1000 ------- 0 2.0 3.0 9 9
- 0.5072 2 3 cbr 1000 ------- 0 2.0 3.0 9 9
+ 0.508 2 3 cbr 1000 ------- 0 2.0 3.0 10 10
- 0.508 2 3 cbr 1000 ------- 0 2.0 3.0 10 10
+ 0.5088 2 3 cbr 1000 ------- 0 2.0 3.0 11 11
- 0.5088 2 3 cbr 1000 ------- 0 2.0 3.0 11 11
+ 0.5096 2 3 cbr 1000 ------- 0 2.0 3.0 12 12
- 0.5096 2 3 cbr 1000 ------- 0 2.0 3.0 12 12
+ 0.5104 2 3 cbr 1000 ------- 0 2.0 3.0 13 13
- 0.5104 2 3 cbr 1000 ------- 0 2.0 3.0 13 13
+ 0.5112 2 3 cbr 1000 ------- 0 2.0 3.0 14 14
- 0.5112 2 3 cbr 1000 ------- 0 2.0 3.0 14 14
+ 0.512 2 3 cbr 1000 ------- 0 2.0 3.0 15 15
- 0.512 2 3 cbr 1000 ------- 0 2.0 3.0 15 15
+ 0.5128 2 3 cbr 1000 ------- 0 2.0 3.0 16 16
- 0.5128 2 3 cbr 1000 ------- 0 2.0 3.0 16 16
+ 0.5136 2 3 cbr 1000 ------- 0 2.0 3.0 17 17
- 0.5136 2 3 cbr 1000 ------- 0 2.0 3.0 17 17
+ 0.5144 2 3 cbr 1000 ------- 0 2.0 3.0 18 18
- 0.5144 2 3 cbr 1000 ------- 0 2.0 3.0 18 18
+ 0.5152 2 3 cbr 1000 ------- 0 2.0 3.0 19 19
- 0.5152 2 3 cbr 1000 ------- 0 2.0 3.0 19 19
+ 0.516 2 3 cbr 1000 ------- 0 2.0 3.0 20 20
- 0.516 2 3 cbr 1000 ------- 0 2.0 3.0 20 20
+ 0.5168 2 3 cbr 1000 ------- 0 2.0 3.0 21 21
- 0.5168 2 3 cbr 1000 ------- 0 2.0 3.0 21 21
+ 0.5176 2 3 cbr 1000 ------- 0 2.0 3.0 22 22
- 0.5176 2 3 cbr 1000 ------- 0 2.0 3.0 22 22
+ 0.5184 2 3 cbr 1000 ------- 0 2.0 3.0 23 23
- 0.5184 2 3 cbr 1000 ------- 0 2.0 3.0 23 23
+ 0.5192 2 3 cbr 1000 ------- 0 2.0 3.0 24 24
- 0.5192 2 3 cbr 1000 ------- 0 2.0 3.0 24 24
+ 0.52 2 3 cbr 1000 ------- 0 2.0 3.0 25 25
- 0.52 2 3 cbr 1000 ------- 0 2.0 3.0 25 25
r 0.5208 2 3 cbr 1000 ------- 0 2.0 3.0 0 0
+ 0.5208 2 3 cbr 1000 ------- 0 2.0 3.0 26 26
- 0.5208 2 3 cbr 1000 ------- 0 2.0 3.0 26 26
r 0.5216 2 3 cbr 1000 ------- 0 2.0 3.0 1 1
+ 0.5216 2 3 cbr 1000 ------- 0 2.0 3.0 27 27
- 0.5216 2 3 cbr 1000 ------- 0 2.0 3.0 27 27
r 0.5224 2 3 cbr 1000 ------- 0 2.0 3.0 2 2
+ 0.5224 2 3 cbr 1000 ------- 0 2.0 3.0 28 28
- 0.5224 2 3 cbr 1000 ------- 0 2.0 3.0 28 28
r 0.5232 2 3 cbr 1000 ------- 0 2.0 3.0 3 3
+ 0.5232 2 3 cbr 1000 ------- 0 2.0 3.0 29 29
- 0.5232 2 3 cbr 1000 ------- 0 2.0 3.0 29 29
r 0.524 2 3 cbr 1000 ------- 0 2.0 3.0 4 4
+ 0.524 2 3 cbr 1000 ------- 0 2.0 3.0 30 30
- 0.524 2 3 cbr 1000 ------- 0 2.0 3.0 30 30
r 0.5248 2 3 cbr 1000 ------- 0 2.0 3.0 5 5
+ 0.5248 2 3 cbr 1000 ------- 0 2.0 3.0 31 31
- 0.5248 2 3 cbr 1000 ------- 0 2.0 3.0 31 31
r 0.5256 2 3 cbr 1000 ------- 0 2.0 3.0 6 6
+ 0.5256 2 3 cbr 1000 ------- 0 2.0 3.0 32 32
- 0.5256 2 3 cbr 1000 ------- 0 2.0 3.0 32 32
r 0.5264 2 3 cbr 1000 ------- 0 2.0 3.0 7 7
+ 0.5264 2 3 cbr 1000 ------- 0 2.0 3.0 33 33
- 0.5264 2 3 cbr 1000 ------- 0 2.0 3.0 33 33
r 0.5272 2 3 cbr 1000 ------- 0 2.0 3.0 8 8
+ 0.5272 2 3 cbr 1000 ------- 0 2.0 3.0 34 34
- 0.5272 2 3 cbr 1000 ------- 0 2.0 3.0 34 34
r 0.528 2 3 cbr 1000 ------- 0 2.0 3.0 9 9
+ 0.528 2 3 cbr 1000 ------- 0 2.0 3.0 35 35
- 0.528 2 3 cbr 1000 ------- 0 2.0 3.0 35 35
r 0.5288 2 3 cbr 1000 ------- 0 2.0 3.0 10 10
+ 0.5288 2 3 cbr 1000 ------- 0 2.0 3.0 36 36
- 0.5288 2 3 cbr 1000 ------- 0 2.0 3.0 36 36
r 0.5296 2 3 cbr 1000 ------- 0 2.0 3.0 11 11
+ 0.5296 2 3 cbr 1000 ------- 0 2.0 3.0 37 37
- 0.5296 2 3 cbr 1000 ------- 0 2.0 3.0 37 37
r 0.5304 2 3 cbr 1000 ------- 0 2.0 3.0 12 12
+ 0.5304 2 3 cbr 1000 ------- 0 2.0 3.0 38 38
- 0.5304 2 3 cbr 1000 ------- 0 2.0 3.0 38 38
r 0.5312 2 3 cbr 1000 ------- 0 2.0 3.0 13 13
+ 0.5312 2 3 cbr 1000 ------- 0 2.0 3.0 39 39
- 0.5312 2 3 cbr 1000 ------- 0 2.0 3.0 39 39
r 0.532 2 3 cbr 1000 ------- 0 2.0 3.0 14 14
+ 0.532 2 3 cbr 1000 ------- 0 2.0 3.0 40 40
- 0.532 2 3 cbr 1000 ------- 0 2.0 3.0 40 40
r 0.5328 2 3 cbr 1000 ------- 0 2.0 3.0 15 15
+ 0.5328 2 3 cbr 1000 ------- 0 2.0 3.0 41 41
- 0.5328 2 3 cbr 1000 ------- 0 2.0 3.0 41 41
r 0.5336 2 3 cbr 1000 ------- 0 2.0 3.0 16 16
+ 0.5336 2 3 cbr 1000 ------- 0 2.0 3.0 42 42
- 0.5336 2 3 cbr 1000 ------- 0 2.0 3.0 42 42
r 0.5344 2 3 cbr 1000 ------- 0 2.0 3.0 17 17
+ 0.5344 2 3 cbr 1000 ------- 0 2.0 3.0 43 43
- 0.5344 2 3 cbr 1000 ------- 0 2.0 3.0 43 43
r 0.5352 2 3 cbr 1000 ------- 0 2.0 3.0 18 18
+ 0.5352 2 3 cbr 1000 ------- 0 2.0 3.0 44 44
- 0.5352 2 3 cbr 1000 ------- 0 2.0 3.0 44 44
r 0.536 2 3 cbr 1000 ------- 0 2.0 3.0 19 19
+ 0.536 2 3 cbr 1000 ------- 0 2.0 3.0 45 45
- 0.536 2 3 cbr 1000 ------- 0 2.0 3.0 45 45
r 0.5368 2 3 cbr 1000 ------- 0 2.0 3.0 20 20
+ 0.5368 2 3 cbr 1000 ------- 0 2.0 3.0 46 46
- 0.5368 2 3 cbr 1000 ------- 0 2.0 3.0 46 46
r 0.5376 2 3 cbr 1000 ------- 0 2.0 3.0 21 21
+ 0.5376 2 3 cbr 1000 ------- 0 2.0 3.0 47 47
- 0.5376 2 3 cbr 1000 ------- 0 2.0 3.0 47 47
r 0.5384 2 3 cbr 1000 ------- 0 2.0 3.0 22 22
+ 0.5384 2 3 cbr 1000 ------- 0 2.0 3.0 48 48
- 0.5384 2 3 cbr 1000 ------- 0 2.0 3.0 48 48
r 0.5392 2 3 cbr 1000 ------- 0 2.0 3.0 23 23
+ 0.5392 2 3 cbr 1000 ------- 0 2.0 3.0 49 49
- 0.5392 2 3 cbr 1000 ------- 0 2.0 3.0 49 49
r 0.54 2 3 cbr 1000 ------- 0 2.0 3.0 24 24
+ 0.54 2 3 cbr 1000 ------- 0 2.0 3.0 50 50
- 0.54 2 3 cbr 1000 ------- 0 2.0 3.0 50 50
r 0.5408 2 3 cbr 1000 ------- 0 2.0 3.0 25 25
+ 0.5408 2 3 cbr 1000 ------- 0 2.0 3.0 51 51
- 0.5408 2 3 cbr 1000 ------- 0 2.0 3.0 51 51
r 0.5416 2 3 cbr 1000 ------- 0 2.0 3.0 26 26
+ 0.5416 2 3 cbr 1000 ------- 0 2.0 3.0 52 52
- 0.5416 2 3 cbr 1000 ------- 0 2.0 3.0 52 52
r 0.5424 2 3 cbr 1000 ------- 0 2.0 3.0 27 27
+ 0.5424 2 3 cbr 1000 ------- 0 2.0 3.0 53 53
- 0.5424 2 3 cbr 1000 ------- 0 2.0 3.0 53 53
r 0.5432 2 3 cbr 1000 ------- 0 2.0 3.0 28 28
+ 0.5432 2 3 cbr 1000 ------- 0 2.0 3.0 54 54
- 0.5432 2 3 cbr 1000 ------- 0 2.0 3.0 54 54
r 0.544 2 3 cbr 1000 ------- 0 2.0 3.0 29 29
+ 0.544 2 3 cbr 1000 ------- 0 2.0 3.0 55 55
- 0.544 2 3 cbr 1000 ------- 0 2.0 3.0 55 55
r 0.5448 2 3 cbr 1000 ------- 0 2.0 3.0 30 30
+ 0.5448 2 3 cbr 1000 ------- 0 2.0 3.0 56 56
- 0.5448 2 3 cbr 1000 ------- 0 2.0 3.0 56 56
r 0.5456 2 3 cbr 1000 ------- 0 2.0 3.0 31 31
+ 0.5456 2 3 cbr 1000 ------- 0 2.0 3.0 57 57
- 0.5456 2 3 cbr 1000 ------- 0 2.0 3.0 57 57
r 0.5464 2 3 cbr 1000 ------- 0 2.0 3.0 32 32
+ 0.5464 2 3 cbr 1000 ------- 0 2.0 3.0 58 58
- 0.5464 2 3 cbr 1000 ------- 0 2.0 3.0 58 58
r 0.5472 2 3 cbr 1000 ------- 0 2.0 3.0 33 33
+ 0.5472 2 3 cbr 1000 ------- 0 2.0 3.0 59 59
- 0.5472 2 3 cbr 1000 ------- 0 2.0 3.0 59 59
r 0.548 2 3 cbr 1000 ------- 0 2.0 3.0 34 34
+ 0.548 2 3 cbr 1000 ------- 0 2.0 3.0 60 60
- 0.548 2 3 cbr 1000 ------- 0 2.0 3.0 60 60
r 0.5488 2 3 cbr 1000 ------- 0 2.0 3.0 35 35
+ 0.5488 2 3 cbr 1000 ------- 0 2.0 3.0 61 61
- 0.5488 2 3 cbr 1000 ------- 0 2.0 3.0 61 61
r 0.5496 2 3 cbr 1000 ------- 0 2.0 3.0 36 36
+ 0.5496 2 3 cbr 1000 ------- 0 2.0 3.0 62 62
- 0.5496 2 3 cbr 1000 ------- 0 2.0 3.0 62 62
r 0.5504 2 3 cbr 1000 ------- 0 2.0 3.0 37 37
+ 0.5504 2 3 cbr 1000 ------- 0 2.0 3.0 63 63
- 0.5504 2 3 cbr 1000 ------- 0 2.0 3.0 63 63
r 0.5512 2 3 cbr 1000 ------- 0 2.0 3.0 38 38
+ 0.5512 2 3 cbr 1000 ------- 0 2.0 3.0 64 64
- 0.5512 2 3 cbr 1000 ------- 0 2.0 3.0 64 64
r 0.552 2 3 cbr 1000 ------- 0 2.0 3.0 39 39
+ 0.552 2 3 cbr 1000 ------- 0 2.0 3.0 65 65
- 0.552 2 3 cbr 1000 ------- 0 2.0 3.0 65 65
r 0.5528 2 3 cbr 1000 ------- 0 2.0 3.0 40 40
+ 0.5528 2 3 cbr 1000 ------- 0 2.0 3.0 66 66
- 0.5528 2 3 cbr 1000 ------- 0 2.0 3.0 66 66
r 0.5536 2 3 cbr 1000 ------- 0 2.0 3.0 41 41
+ 0.5536 2 3 cbr 1000 ------- 0 2.0 3.0 67 67
- 0.5536 2 3 cbr 1000 ------- 0 2.0 3.0 67 67
r 0.5544 2 3 cbr 1000 ------- 0 2.0 3.0 42 42
+ 0.5544 2 3 cbr 1000 ------- 0 2.0 3.0 68 68
- 0.5544 2 3 cbr 1000 ------- 0 2.0 3.0 68 68
r 0.5552 2 3 cbr 1000 ------- 0 2.0 3.0 43 43
+ 0.5552 2 3 cbr 1000 ------- 0 2.0 3.0 69 69
- 0.5552 2 3 cbr 1000 ------- 0 2.0 3.0 69 69
r 0.556 2 3 cbr 1000 ------- 0 2.0 3.0 44 44
+ 0.556 2 3 cbr 1000 ------- 0 2.0 3.0 70 70
- 0.556 2 3 cbr 1000 ------- 0 2.0 3.0 70 70
r 0.5568 2 3 cbr 1000 ------- 0 2.0 3.0 45 45
+ 0.5568 2 3 cbr 1000 ------- 0 2.0 3.0 71 71
- 0.5568 2 3 cbr 1000 ------- 0 2.0 3.0 71 71
r 0.5576 2 3 cbr 1000 ------- 0 2.0 3.0 46 46
+ 0.5576 2 3 cbr 1000 ------- 0 2.0 3.0 72 72
- 0.5576 2 3 cbr 1000 ------- 0 2.0 3.0 72 72
r 0.5584 2 3 cbr 1000 ------- 0 2.0 3.0 47 47
+ 0.5584 2 3 cbr 1000 ------- 0 2.0 3.0 73 73
- 0.5584 2 3 cbr 1000 ------- 0 2.0 3.0 73 73
r 0.5592 2 3 cbr 1000 ------- 0 2.0 3.0 48 48
+ 0.5592 2 3 cbr 1000 ------- 0 2.0 3.0 74 74
- 0.5592 2 3 cbr 1000 ------- 0 2.0 3.0 74 74
r 0.56 2 3 cbr 1000 ------- 0 2.0 3.0 49 49
+ 0.56 2 3 cbr 1000 ------- 0 2.0 3.0 75 75
- 0.56 2 3 cbr 1000 ------- 0 2.0 3.0 75 75
r 0.5608 2 3 cbr 1000 ------- 0 2.0 3.0 50 50
+ 0.5608 2 3 cbr 1000 ------- 0 2.0 3.0 76 76
- 0.5608 2 3 cbr 1000 ------- 0 2.0 3.0 76 76
r 0.5616 2 3 cbr 1000 ------- 0 2.0 3.0 51 51
+ 0.5616 2 3 cbr 1000 ------- 0 2.0 3.0 77 77
- 0.5616 2 3 cbr 1000 ------- 0 2.0 3.0 77 77
r 0.5624 2 3 cbr 1000 ------- 0 2.0 3.0 52 52
+ 0.5624 2 3 cbr 1000 ------- 0 2.0 3.0 78 78
- 0.5624 2 3 cbr 1000 ------- 0 2.0 3.0 78 78
r 0.5632 2 3 cbr 1000 ------- 0 2.0 3.0 53 53
+ 0.5632 2 3 cbr 1000 ------- 0 2.0 3.0 79 79
- 0.5632 2 3 cbr 1000 ------- 0 2.0 3.0 79 79
r 0.564 2 3 cbr 1000 ------- 0 2.0 3.0 54 54
+ 0.564 2 3 cbr 1000 ------- 0 2.0 3.0 80 80
- 0.564 2 3 cbr 1000 ------- 0 2.0 3.0 80 80
r 0.5648 2 3 cbr 1000 ------- 0 2.0 3.0 55 55
+ 0.5648 2 3 cbr 1000 ------- 0 2.0 3.0 81 81
- 0.5648 2 3 cbr 1000 ------- 0 2.0 3.0 81 81
r 0.5656 2 3 cbr 1000 ------- 0 2.0 3.0 56 56
+ 0.5656 2 3 cbr 1000 ------- 0 2.0 3.0 82 82
- 0.5656 2 3 cbr 1000 ------- 0 2.0 3.0 82 82
r 0.5664 2 3 cbr 1000 ------- 0 2.0 3.0 57 57
+ 0.5664 2 3 cbr 1000 ------- 0 2.0 3.0 83 83
- 0.5664 2 3 cbr 1000 ------- 0 2.0 3.0 83 83
r 0.5672 2 3 cbr 1000 ------- 0 2.0 3.0 58 58
+ 0.5672 2 3 cbr 1000 ------- 0 2.0 3.0 84 84
- 0.5672 2 3 cbr 1000 ------- 0 2.0 3.0 84 84
r 0.568 2 3 cbr 1000 ------- 0 2.0 3.0 59 59
+ 0.568 2 3 cbr 1000 ------- 0 2.0 3.0 85 85
- 0.568 2 3 cbr 1000 ------- 0 2.0 3.0 85 85
r 0.5688 2 3 cbr 1000 ------- 0 2.0 3.0 60 60
+ 0.5688 2 3 cbr 1000 ------- 0 2.0 3.0 86 86
- 0.5688 2 3 cbr 1000 ------- 0 2.0 3.0 86 86
r 0.5696 2 3 cbr 1000 ------- 0 2.0 3.0 61 61
+ 0.5696 2 3 cbr 1000 ------- 0 2.0 3.0 87 87
- 0.5696 2 3 cbr 1000 ------- 0 2.0 3.0 87 87
r 0.5704 2 3 cbr 1000 ------- 0 2.0 3.0 62 62
+ 0.5704 2 3 cbr 1000 ------- 0 2.0 3.0 88 88
- 0.5704 2 3 cbr 1000 ------- 0 2.0 3.0 88 88
r 0.5712 2 3 cbr 1000 ------- 0 2.0 3.0 63 63
+ 0.5712 2 3 cbr 1000 ------- 0 2.0 3.0 89 89
- 0.5712 2 3 cbr 1000 ------- 0 2.0 3.0 89 89
r 0.572 2 3 cbr 1000 ------- 0 2.0 3.0 64 64
+ 0.572 2 3 cbr 1000 ------- 0 2.0 3.0 90 90
- 0.572 2 3 cbr 1000 ------- 0 2.0 3.0 90 90
r 0.5728 2 3 cbr 1000 ------- 0 2.0 3.0 65 65
+ 0.5728 2 3 cbr 1000 ------- 0 2.0 3.0 91 91
- 0.5728 2 3 cbr 1000 ------- 0 2.0 3.0 91 91
r 0.5736 2 3 cbr 1000 ------- 0 2.0 3.0 66 66
+ 0.5736 2 3 cbr 1000 ------- 0 2.0 3.0 92 92
- 0.5736 2 3 cbr 1000 ------- 0 2.0 3.0 92 92
r 0.5744 2 3 cbr 1000 ------- 0 2.0 3.0 67 67
+ 0.5744 2 3 cbr 1000 ------- 0 2.0 3.0 93 93
- 0.5744 2 3 cbr 1000 ------- 0 2.0 3.0 93 93
r 0.5752 2 3 cbr 1000 ------- 0 2.0 3.0 68 68
+ 0.5752 2 3 cbr 1000 ------- 0 2.0 3.0 94 94
- 0.5752 2 3 cbr 1000 ------- 0 2.0 3.0 94 94
r 0.576 2 3 cbr 1000 ------- 0 2.0 3.0 69 69
+ 0.576 2 3 cbr 1000 ------- 0 2.0 3.0 95 95
- 0.576 2 3 cbr 1000 ------- 0 2.0 3.0 95 95
r 0.5768 2 3 cbr 1000 ------- 0 2.0 3.0 70 70
+ 0.5768 2 3 cbr 1000 ------- 0 2.0 3.0 96 96
- 0.5768 2 3 cbr 1000 ------- 0 2.0 3.0 96 96
r 0.5776 2 3 cbr 1000 ------- 0 2.0 3.0 71 71
+ 0.5776 2 3 cbr 1000 ------- 0 2.0 3.0 97 97
- 0.5776 2 3 cbr 1000 ------- 0 2.0 3.0 97 97
r 0.5784 2 3 cbr 1000 ------- 0 2.0 3.0 72 72
+ 0.5784 2 3 cbr 1000 ------- 0 2.0 3.0 98 98
- 0.5784 2 3 cbr 1000 ------- 0 2.0 3.0 98 98
r 0.5792 2 3 cbr 1000 ------- 0 2.0 3.0 73 73
+ 0.5792 2 3 cbr 1000 ------- 0 2.0 3.0 99 99
- 0.5792 2 3 cbr 1000 ------- 0 2.0 3.0 99 99
r 0.58 2 3 cbr 1000 ------- 0 2.0 3.0 74 74
+ 0.58 2 3 cbr 1000 ------- 0 2.0 3.0 100 100
- 0.58 2 3 cbr 1000 ------- 0 2.0 3.0 100 100
r 0.5808 2 3 cbr 1000 ------- 0 2.0 3.0 75 75
+ 0.5808 2 3 cbr 1000 ------- 0 2.0 3.0 101 101
- 0.5808 2 3 cbr 1000 ------- 0 2.0 3.0 101 101
r 0.5816 2 3 cbr 1000 ------- 0 2.0 3.0 76 76
+ 0.5816 2 3 cbr 1000 ------- 0 2.0 3.0 102 102
- 0.5816 2 3 cbr 1000 ------- 0 2.0 3.0 102 102
r 0.5824 2 3 cbr 1000 ------- 0 2.0 3.0 77 77
+ 0.5824 2 3 cbr 1000 ------- 0 2.0 3.0 103 103
- 0.5824 2 3 cbr 1000 ------- 0 2.0 3.0 103 103
r 0.5832 2 3 cbr 1000 ------- 0 2.0 3.0 78 78
+ 0.5832 2 3 cbr 1000 ------- 0 2.0 3.0 104 104
- 0.5832 2 3 cbr 1000 ------- 0 2.0 3.0 104 104
r 0.584 2 3 cbr 1000 ------- 0 2.0 3.0 79 79
+ 0.584 2 3 cbr 1000 ------- 0 2.0 3.0 105 105
- 0.584 2 3 cbr 1000 ------- 0 2.0 3.0 105 105
r 0.5848 2 3 cbr 1000 ------- 0 2.0 3.0 80 80
+ 0.5848 2 3 cbr 1000 ------- 0 2.0 3.0 106 106
- 0.5848 2 3 cbr 1000 ------- 0 2.0 3.0 106 106
r 0.5856 2 3 cbr 1000 ------- 0 2.0 3.0 81 81
+ 0.5856 2 3 cbr 1000 ------- 0 2.0 3.0 107 107
- 0.5856 2 3 cbr 1000 ------- 0 2.0 3.0 107 107
r 0.5864 2 3 cbr 1000 ------- 0 2.0 3.0 82 82
+ 0.5864 2 3 cbr 1000 ------- 0 2.0 3.0 108 108
- 0.5864 2 3 cbr 1000 ------- 0 2.0 3.0 108 108
r 0.5872 2 3 cbr 1000 ------- 0 2.0 3.0 83 83
+ 0.5872 2 3 cbr 1000 ------- 0 2.0 3.0 109 109
- 0.5872 2 3 cbr 1000 ------- 0 2.0 3.0 109 109
r 0.588 2 3 cbr 1000 ------- 0 2.0 3.0 84 84
+ 0.588 2 3 cbr 1000 ------- 0 2.0 3.0 110 110
- 0.588 2 3 cbr 1000 ------- 0 2.0 3.0 110 110
r 0.5888 2 3 cbr 1000 ------- 0 2.0 3.0 85 85
+ 0.5888 2 3 cbr 1000 ------- 0 2.0 3.0 111 111
- 0.5888 2 3 cbr 1000 ------- 0 2.0 3.0 111 111
r 0.5896 2 3 cbr 1000 ------- 0 2.0 3.0 86 86
+ 0.5896 2 3 cbr 1000 ------- 0 2.0 3.0 112 112
- 0.5896 2 3 cbr 1000 ------- 0 2.0 3.0 112 112
r 0.5904 2 3 cbr 1000 ------- 0 2.0 3.0 87 87
+ 0.5904 2 3 cbr 1000 ------- 0 2.0 3.0 113 113
- 0.5904 2 3 cbr 1000 ------- 0 2.0 3.0 113 113
r 0.5912 2 3 cbr 1000 ------- 0 2.0 3.0 88 88
+ 0.5912 2 3 cbr 1000 ------- 0 2.0 3.0 114 114
- 0.5912 2 3 cbr 1000 ------- 0 2.0 3.0 114 114
r 0.592 2 3 cbr 1000 ------- 0 2.0 3.0 89 89
+ 0.592 2 3 cbr 1000 ------- 0 2.0 3.0 115 115
- 0.592 2 3 cbr 1000 ------- 0 2.0 3.0 115 115
r 0.5928 2 3 cbr 1000 ------- 0 2.0 3.0 90 90
+ 0.5928 2 3 cbr 1000 ------- 0 2.0 3.0 116 116
- 0.5928 2 3 cbr 1000 ------- 0 2.0 3.0 116 116
r 0.5936 2 3 cbr 1000 ------- 0 2.0 3.0 91 91
+ 0.5936 2 3 cbr 1000 ------- 0 2.0 3.0 117 117
- 0.5936 2 3 cbr 1000 ------- 0 2.0 3.0 117 117
r 0.5944 2 3 cbr 1000 ------- 0 2.0 3.0 92 92
+ 0.5944 2 3 cbr 1000 ------- 0 2.0 3.0 118 118
- 0.5944 2 3 cbr 1000 ------- 0 2.0 3.0 118 118
r 0.5952 2 3 cbr 1000 ------- 0 2.0 3.0 93 93
+ 0.5952 2 3 cbr 1000 ------- 0 2.0 3.0 119 119
- 0.5952 2 3 cbr 1000 ------- 0 2.0 3.0 119 119
r 0.596 2 3 cbr 1000 ------- 0 2.0 3.0 94 94
+ 0.596 2 3 cbr 1000 ------- 0 2.0 3.0 120 120
- 0.596 2 3 cbr 1000 ------- 0 2.0 3.0 120 120
r 0.5968 2 3 cbr 1000 ------- 0 2.0 3.0 95 95
+ 0.5968 2 3 cbr 1000 ------- 0 2.0 3.0 121 121
- 0.5968 2 3 cbr 1000 ------- 0 2.0 3.0 121 121
r 0.5976 2 3 cbr 1000 ------- 0 2.0 3.0 96 96
+ 0.5976 2 3 cbr 1000 ------- 0 2.0 3.0 122 122
- 0.5976 2 3 cbr 1000 ------- 0 2.0 3.0 122 122
r 0.5984 2 3 cbr 1000 ------- 0 2.0 3.0 97 97
+ 0.5984 2 3 cbr 1000 ------- 0 2.0 3.0 123 123
- 0.5984 2 3 cbr 1000 ------- 0 2.0 3.0 123 123
r 0.5992 2 3 cbr 1000 ------- 0 2.0 3.0 98 98
+ 0.5992 2 3 cbr 1000 ------- 0 2.0 3.0 124 124
- 0.5992 2 3 cbr 1000 ------- 0 2.0 3.0 124 124
+ 0.6 0 2 tcp 40 ------- 1 0.0 4.0 0 125
- 0.6 0 2 tcp 40 ------- 1 0.0 4.0 0 125
r 0.6 2 3 cbr 1000 ------- 0 2.0 3.0 99 99
+ 0.6 2 3 cbr 1000 ------- 0 2.0 3.0 125 126
- 0.6 2 3 cbr 1000 ------- 0 2.0 3.0 125 126
r 0.6008 2 3 cbr 1000 ------- 0 2.0 3.0 100 100
+ 0.6008 2 3 cbr 1000 ------- 0 2.0 3.0 126 127
- 0.6008 2 3 cbr 1000 ------- 0 2.0 3.0 126 127
r 0.6016 2 3 cbr 1000 ------- 0 2.0 3.0 101 101
+ 0.6016 2 3 cbr 1000 ------- 0 2.0 3.0 127 128
- 0.6016 2 3 cbr 1000 ------- 0 2.0 3.0 127 128
r 0.6024 2 3 cbr 1000 ------- 0 2.0 3.0 102 102
+ 0.6024 2 3 cbr 1000 ------- 0 2.0 3.0 128 129
- 0.6024 2 3 cbr 1000 ------- 0 2.0 3.0 128 129
r 0.6032 2 3 cbr 1000 ------- 0 2.0 3.0 103 103
+ 0.6032 2 3 cbr 1000 ------- 0 2.0 3.0 129 130
- 0.6032 2 3 cbr 1000 ------- 0 2.0 3.0 129 130
r 0.604 2 3 cbr 1000 ------- 0 2.0 3.0 104 104
+ 0.604 2 3 cbr 1000 ------- 0 2.0 3.0 130 131
- 0.604 2 3 cbr 1000 ------- 0 2.0 3.0 130 131
r 0.6048 2 3 cbr 1000 ------- 0 2.0 3.0 105 105
+ 0.6048 2 3 cbr 1000 ------- 0 2.0 3.0 131 132
- 0.6048 2 3 cbr 1000 ------- 0 2.0 3.0 131 132
r 0.6056 2 3 cbr 1000 ------- 0 2.0 3.0 106 106
+ 0.6056 2 3 cbr 1000 ------- 0 2.0 3.0 132 133
- 0.6056 2 3 cbr 1000 ------- 0 2.0 3.0 132 133
r 0.6064 2 3 cbr 1000 ------- 0 2.0 3.0 107 107
+ 0.6064 2 3 cbr 1000 ------- 0 2.0 3.0 133 134
- 0.6064 2 3 cbr 1000 ------- 0 2.0 3.0 133 134
r 0.6072 2 3 cbr 1000 ------- 0 2.0 3.0 108 108
+ 0.6072 2 3 cbr 1000 ------- 0 2.0 3.0 134 135
- 0.6072 2 3 cbr 1000 ------- 0 2.0 3.0 134 135
r 0.608 2 3 cbr 1000 ------- 0 2.0 3.0 109 109
+ 0.608 2 3 cbr 1000 ------- 0 2.0 3.0 135 136
- 0.608 2 3 cbr 1000 ------- 0 2.0 3.0 135 136
r 0.6088 2 3 cbr 1000 ------- 0 2.0 3.0 110 110
+ 0.6088 2 3 cbr 1000 ------- 0 2.0 3.0 136 137
- 0.6088 2 3 cbr 1000 ------- 0 2.0 3.0 136 137
r 0.6096 2 3 cbr 1000 ------- 0 2.0 3.0 111 111
+ 0.6096 2 3 cbr 1000 ------- 0 2.0 3.0 137 138
- 0.6096 2 3 cbr 1000 ------- 0 2.0 3.0 137 138
r 0.610032 0 2 tcp 40 ------- 1 0.0 4.0 0 125
+ 0.610032 2 3 tcp 40 ------- 1 0.0 4.0 0 125
r 0.6104 2 3 cbr 1000 ------- 0 2.0 3.0 112 112
- 0.6104 2 3 tcp 40 ------- 1 0.0 4.0 0 125
+ 0.6104 2 3 cbr 1000 ------- 0 2.0 3.0 138 139
- 0.610432 2 3 cbr 1000 ------- 0 2.0 3.0 138 139
r 0.6112 2 3 cbr 1000 ------- 0 2.0 3.0 113 113
+ 0.6112 2 3 cbr 1000 ------- 0 2.0 3.0 139 140
- 0.611232 2 3 cbr 1000 ------- 0 2.0 3.0 139 140
r 0.612 2 3 cbr 1000 ------- 0 2.0 3.0 114 114
+ 0.612 2 3 cbr 1000 ------- 0 2.0 3.0 140 141
- 0.612032 2 3 cbr 1000 ------- 0 2.0 3.0 140 141
r 0.6128 2 3 cbr 1000 ------- 0 2.0 3.0 115 115
+ 0.6128 2 3 cbr 1000 ------- 0 2.0 3.0 141 142
- 0.612832 2 3 cbr 1000 ------- 0 2.0 3.0 141 142
r 0.6136 2 3 cbr 1000 ------- 0 2.0 3.0 116 116
+ 0.6136 2 3 cbr 1000 ------- 0 2.0 3.0 142 143
- 0.613632 2 3 cbr 1000 ------- 0 2.0 3.0 142 143
r 0.6144 2 3 cbr 1000 ------- 0 2.0 3.0 117 117
+ 0.6144 2 3 cbr 1000 ------- 0 2.0 3.0 143 144
- 0.614432 2 3 cbr 1000 ------- 0 2.0 3.0 143 144
r 0.6152 2 3 cbr 1000 ------- 0 2.0 3.0 118 118
+ 0.6152 2 3 cbr 1000 ------- 0 2.0 3.0 144 145
- 0.615232 2 3 cbr 1000 ------- 0 2.0 3.0 144 145
r 0.616 2 3 cbr 1000 ------- 0 2.0 3.0 119 119
+ 0.616 2 3 cbr 1000 ------- 0 2.0 3.0 145 146
- 0.616032 2 3 cbr 1000 ------- 0 2.0 3.0 145 146
r 0.6168 2 3 cbr 1000 ------- 0 2.0 3.0 120 120
+ 0.6168 2 3 cbr 1000 ------- 0 2.0 3.0 146 147
- 0.616832 2 3 cbr 1000 ------- 0 2.0 3.0 146 147
r 0.6176 2 3 cbr 1000 ------- 0 2.0 3.0 121 121
+ 0.6176 2 3 cbr 1000 ------- 0 2.0 3.0 147 148
- 0.617632 2 3 cbr 1000 ------- 0 2.0 3.0 147 148
r 0.6184 2 3 cbr 1000 ------- 0 2.0 3.0 122 122
+ 0.6184 2 3 cbr 1000 ------- 0 2.0 3.0 148 149
- 0.618432 2 3 cbr 1000 ------- 0 2.0 3.0 148 149
r 0.6192 2 3 cbr 1000 ------- 0 2.0 3.0 123 123
+ 0.6192 2 3 cbr 1000 ------- 0 2.0 3.0 149 150
- 0.619232 2 3 cbr 1000 ------- 0 2.0 3.0 149 150
r 0.62 2 3 cbr 1000 ------- 0 2.0 3.0 124 124
+ 0.62 2 3 cbr 1000 ------- 0 2.0 3.0 150 151
- 0.620032 2 3 cbr 1000 ------- 0 2.0 3.0 150 151
r 0.6208 2 3 cbr 1000 ------- 0 2.0 3.0 125 126
+ 0.6208 2 3 cbr 1000 ------- 0 2.0 3.0 151 152
- 0.620832 2 3 cbr 1000 ------- 0 2.0 3.0 151 152
r 0.6216 2 3 cbr 1000 ------- 0 2.0 3.0 126 127
+ 0.6216 2 3 cbr 1000 ------- 0 2.0 3.0 152 153
- 0.621632 2 3 cbr 1000 ------- 0 2.0 3.0 152 153
r 0.6224 2 3 cbr 1000 ------- 0 2.0 3.0 127 128
+ 0.6224 2 3 cbr 1000 ------- 0 2.0 3.0 153 154
- 0.622432 2 3 cbr 1000 ------- 0 2.0 3.0 153 154
r 0.6232 2 3 cbr 1000 ------- 0 2.0 3.0 128 129
+ 0.6232 2 3 cbr 1000 ------- 0 2.0 3.0 154 155
- 0.623232 2 3 cbr 1000 ------- 0 2.0 3.0 154 155
r 0.624 2 3 cbr 1000 ------- 0 2.0 3.0 129 130
+ 0.624 2 3 cbr 1000 ------- 0 2.0 3.0 155 156
- 0.624032 2 3 cbr 1000 ------- 0 2.0 3.0 155 156
r 0.6248 2 3 cbr 1000 ------- 0 2.0 3.0 130 131
+ 0.6248 2 3 cbr 1000 ------- 0 2.0 3.0 156 157
- 0.624832 2 3 cbr 1000 ------- 0 2.0 3.0 156 157
r 0.6256 2 3 cbr 1000 ------- 0 2.0 3.0 131 132
+ 0.6256 2 3 cbr 1000 ------- 0 2.0 3.0 157 158
- 0.625632 2 3 cbr 1000 ------- 0 2.0 3.0 157 158
r 0.6264 2 3 cbr 1000 ------- 0 2.0 3.0 132 133
+ 0.6264 2 3 cbr 1000 ------- 0 2.0 3.0 158 159
- 0.626432 2 3 cbr 1000 ------- 0 2.0 3.0 158 159
r 0.6272 2 3 cbr 1000 ------- 0 2.0 3.0 133 134
+ 0.6272 2 3 cbr 1000 ------- 0 2.0 3.0 159 160
- 0.627232 2 3 cbr 1000 ------- 0 2.0 3.0 159 160
r 0.628 2 3 cbr 1000 ------- 0 2.0 3.0 134 135
+ 0.628 2 3 cbr 1000 ------- 0 2.0 3.0 160 161
- 0.628032 2 3 cbr 1000 ------- 0 2.0 3.0 160 161
r 0.6288 2 3 cbr 1000 ------- 0 2.0 3.0 135 136
+ 0.6288 2 3 cbr 1000 ------- 0 2.0 3.0 161 162
- 0.628832 2 3 cbr 1000 ------- 0 2.0 3.0 161 162
r 0.6296 2 3 cbr 1000 ------- 0 2.0 3.0 136 137
+ 0.6296 2 3 cbr 1000 ------- 0 2.0 3.0 162 163
- 0.629632 2 3 cbr 1000 ------- 0 2.0 3.0 162 163
r 0.6304 2 3 cbr 1000 ------- 0 2.0 3.0 137 138
+ 0.6304 2 3 cbr 1000 ------- 0 2.0 3.0 163 164
r 0.630432 2 3 tcp 40 ------- 1 0.0 4.0 0 125
+ 0.630432 3 4 tcp 40 ------- 1 0.0 4.0 0 125
- 0.630432 3 4 tcp 40 ------- 1 0.0 4.0 0 125
- 0.630432 2 3 cbr 1000 ------- 0 2.0 3.0 163 164
+ 0.6312 2 3 cbr 1000 ------- 0 2.0 3.0 164 165
r 0.631232 2 3 cbr 1000 ------- 0 2.0 3.0 138 139
- 0.631232 2 3 cbr 1000 ------- 0 2.0 3.0 164 165
+ 0.632 2 3 cbr 1000 ------- 0 2.0 3.0 165 166
r 0.632032 2 3 cbr 1000 ------- 0 2.0 3.0 139 140
- 0.632032 2 3 cbr 1000 ------- 0 2.0 3.0 165 166
+ 0.6328 2 3 cbr 1000 ------- 0 2.0 3.0 166 167
r 0.632832 2 3 cbr 1000 ------- 0 2.0 3.0 140 141
- 0.632832 2 3 cbr 1000 ------- 0 2.0 3.0 166 167
+ 0.6336 2 3 cbr 1000 ------- 0 2.0 3.0 167 168
r 0.633632 2 3 cbr 1000 ------- 0 2.0 3.0 141 142
- 0.633632 2 3 cbr 1000 ------- 0 2.0 3.0 167 168
+ 0.6344 2 3 cbr 1000 ------- 0 2.0 3.0 168 169
r 0.634432 2 3 cbr 1000 ------- 0 2.0 3.0 142 143
- 0.634432 2 3 cbr 1000 ------- 0 2.0 3.0 168 169
+ 0.6352 2 3 cbr 1000 ------- 0 2.0 3.0 169 170
r 0.635232 2 3 cbr 1000 ------- 0 2.0 3.0 143 144
- 0.635232 2 3 cbr 1000 ------- 0 2.0 3.0 169 170
+ 0.636 2 3 cbr 1000 ------- 0 2.0 3.0 170 171
r 0.636032 2 3 cbr 1000 ------- 0 2.0 3.0 144 145
- 0.636032 2 3 cbr 1000 ------- 0 2.0 3.0 170 171
+ 0.6368 2 3 cbr 1000 ------- 0 2.0 3.0 171 172
r 0.636832 2 3 cbr 1000 ------- 0 2.0 3.0 145 146
- 0.636832 2 3 cbr 1000 ------- 0 2.0 3.0 171 172
+ 0.6376 2 3 cbr 1000 ------- 0 2.0 3.0 172 173
r 0.637632 2 3 cbr 1000 ------- 0 2.0 3.0 146 147
- 0.637632 2 3 cbr 1000 ------- 0 2.0 3.0 172 173
+ 0.6384 2 3 cbr 1000 ------- 0 2.0 3.0 173 174
r 0.638432 2 3 cbr 1000 ------- 0 2.0 3.0 147 148
- 0.638432 2 3 cbr 1000 ------- 0 2.0 3.0 173 174
+ 0.6392 2 3 cbr 1000 ------- 0 2.0 3.0 174 175
r 0.639232 2 3 cbr 1000 ------- 0 2.0 3.0 148 149
- 0.639232 2 3 cbr 1000 ------- 0 2.0 3.0 174 175
+ 0.64 2 3 cbr 1000 ------- 0 2.0 3.0 175 176
r 0.640032 2 3 cbr 1000 ------- 0 2.0 3.0 149 150
- 0.640032 2 3 cbr 1000 ------- 0 2.0 3.0 175 176
r 0.640464 3 4 tcp 40 ------- 1 0.0 4.0 0 125
+ 0.640464 4 3 ack 40 ------- 1 4.0 0.0 0 177
- 0.640464 4 3 ack 40 ------- 1 4.0 0.0 0 177
+ 0.6408 2 3 cbr 1000 ------- 0 2.0 3.0 176 178
r 0.640832 2 3 cbr 1000 ------- 0 2.0 3.0 150 151
- 0.640832 2 3 cbr 1000 ------- 0 2.0 3.0 176 178
+ 0.6416 2 3 cbr 1000 ------- 0 2.0 3.0 177 179
r 0.641632 2 3 cbr 1000 ------- 0 2.0 3.0 151 152
- 0.641632 2 3 cbr 1000 ------- 0 2.0 3.0 177 179
+ 0.6424 2 3 cbr 1000 ------- 0 2.0 3.0 178 180
r 0.642432 2 3 cbr 1000 ------- 0 2.0 3.0 152 153
- 0.642432 2 3 cbr 1000 ------- 0 2.0 3.0 178 180
+ 0.6432 2 3 cbr 1000 ------- 0 2.0 3.0 179 181
r 0.643232 2 3 cbr 1000 ------- 0 2.0 3.0 153 154
- 0.643232 2 3 cbr 1000 ------- 0 2.0 3.0 179 181
+ 0.644 2 3 cbr 1000 ------- 0 2.0 3.0 180 182
r 0.644032 2 3 cbr 1000 ------- 0 2.0 3.0 154 155
- 0.644032 2 3 cbr 1000 ------- 0 2.0 3.0 180 182
+ 0.6448 2 3 cbr 1000 ------- 0 2.0 3.0 181 183
r 0.644832 2 3 cbr 1000 ------- 0 2.0 3.0 155 156
- 0.644832 2 3 cbr 1000 ------- 0 2.0 3.0 181 183
+ 0.6456 2 3 cbr 1000 ------- 0 2.0 3.0 182 184
r 0.645632 2 3 cbr 1000 ------- 0 2.0 3.0 156 157
- 0.645632 2 3 cbr 1000 ------- 0 2.0 3.0 182 184
+ 0.6464 2 3 cbr 1000 ------- 0 2.0 3.0 183 185
r 0.646432 2 3 cbr 1000 ------- 0 2.0 3.0 157 158
- 0.646432 2 3 cbr 1000 ------- 0 2.0 3.0 183 185
+ 0.6472 2 3 cbr 1000 ------- 0 2.0 3.0 184 186
r 0.647232 2 3 cbr 1000 ------- 0 2.0 3.0 158 159
- 0.647232 2 3 cbr 1000 ------- 0 2.0 3.0 184 186
+ 0.648 2 3 cbr 1000 ------- 0 2.0 3.0 185 187
r 0.648032 2 3 cbr 1000 ------- 0 2.0 3.0 159 160
- 0.648032 2 3 cbr 1000 ------- 0 2.0 3.0 185 187
+ 0.6488 2 3 cbr 1000 ------- 0 2.0 3.0 186 188
r 0.648832 2 3 cbr 1000 ------- 0 2.0 3.0 160 161
- 0.648832 2 3 cbr 1000 ------- 0 2.0 3.0 186 188
+ 0.6496 2 3 cbr 1000 ------- 0 2.0 3.0 187 189
r 0.649632 2 3 cbr 1000 ------- 0 2.0 3.0 161 162
- 0.649632 2 3 cbr 1000 ------- 0 2.0 3.0 187 189
+ 0.6504 2 3 cbr 1000 ------- 0 2.0 3.0 188 190
r 0.650432 2 3 cbr 1000 ------- 0 2.0 3.0 162 163
- 0.650432 2 3 cbr 1000 ------- 0 2.0 3.0 188 190
r 0.650496 4 3 ack 40 ------- 1 4.0 0.0 0 177
+ 0.650496 3 2 ack 40 ------- 1 4.0 0.0 0 177
- 0.650496 3 2 ack 40 ------- 1 4.0 0.0 0 177
+ 0.6512 2 3 cbr 1000 ------- 0 2.0 3.0 189 191
r 0.651232 2 3 cbr 1000 ------- 0 2.0 3.0 163 164
- 0.651232 2 3 cbr 1000 ------- 0 2.0 3.0 189 191
+ 0.652 2 3 cbr 1000 ------- 0 2.0 3.0 190 192
r 0.652032 2 3 cbr 1000 ------- 0 2.0 3.0 164 165
- 0.652032 2 3 cbr 1000 ------- 0 2.0 3.0 190 192
+ 0.6528 2 3 cbr 1000 ------- 0 2.0 3.0 191 193
r 0.652832 2 3 cbr 1000 ------- 0 2.0 3.0 165 166
- 0.652832 2 3 cbr 1000 ------- 0 2.0 3.0 191 193
+ 0.6536 2 3 cbr 1000 ------- 0 2.0 3.0 192 194
r 0.653632 2 3 cbr 1000 ------- 0 2.0 3.0 166 167
- 0.653632 2 3 cbr 1000 ------- 0 2.0 3.0 192 194
+ 0.6544 2 3 cbr 1000 ------- 0 2.0 3.0 193 195
r 0.654432 2 3 cbr 1000 ------- 0 2.0 3.0 167 168
- 0.654432 2 3 cbr 1000 ------- 0 2.0 3.0 193 195
+ 0.6552 2 3 cbr 1000 ------- 0 2.0 3.0 194 196
r 0.655232 2 3 cbr 1000 ------- 0 2.0 3.0 168 169
- 0.655232 2 3 cbr 1000 ------- 0 2.0 3.0 194 196
+ 0.656 2 3 cbr 1000 ------- 0 2.0 3.0 195 197
r 0.656032 2 3 cbr 1000 ------- 0 2.0 3.0 169 170
- 0.656032 2 3 cbr 1000 ------- 0 2.0 3.0 195 197
+ 0.6568 2 3 cbr 1000 ------- 0 2.0 3.0 196 198
r 0.656832 2 3 cbr 1000 ------- 0 2.0 3.0 170 171
- 0.656832 2 3 cbr 1000 ------- 0 2.0 3.0 196 198
+ 0.6576 2 3 cbr 1000 ------- 0 2.0 3.0 197 199
r 0.657632 2 3 cbr 1000 ------- 0 2.0 3.0 171 172
- 0.657632 2 3 cbr 1000 ------- 0 2.0 3.0 197 199
+ 0.6584 2 3 cbr 1000 ------- 0 2.0 3.0 198 200
r 0.658432 2 3 cbr 1000 ------- 0 2.0 3.0 172 173
- 0.658432 2 3 cbr 1000 ------- 0 2.0 3.0 198 200
+ 0.6592 2 3 cbr 1000 ------- 0 2.0 3.0 199 201
r 0.659232 2 3 cbr 1000 ------- 0 2.0 3.0 173 174
- 0.659232 2 3 cbr 1000 ------- 0 2.0 3.0 199 201
+ 0.66 2 3 cbr 1000 ------- 0 2.0 3.0 200 202
r 0.660032 2 3 cbr 1000 ------- 0 2.0 3.0 174 175
- 0.660032 2 3 cbr 1000 ------- 0 2.0 3.0 200 202
+ 0.6608 2 3 cbr 1000 ------- 0 2.0 3.0 201 203
r 0.660832 2 3 cbr 1000 ------- 0 2.0 3.0 175 176
- 0.660832 2 3 cbr 1000 ------- 0 2.0 3.0 201 203
+ 0.6616 2 3 cbr 1000 ------- 0 2.0 3.0 202 204
r 0.661632 2 3 cbr 1000 ------- 0 2.0 3.0 176 178
- 0.661632 2 3 cbr 1000 ------- 0 2.0 3.0 202 204
+ 0.6624 2 3 cbr 1000 ------- 0 2.0 3.0 203 205
r 0.662432 2 3 cbr 1000 ------- 0 2.0 3.0 177 179
- 0.662432 2 3 cbr 1000 ------- 0 2.0 3.0 203 205
+ 0.6632 2 3 cbr 1000 ------- 0 2.0 3.0 204 206
r 0.663232 2 3 cbr 1000 ------- 0 2.0 3.0 178 180
- 0.663232 2 3 cbr 1000 ------- 0 2.0 3.0 204 206
+ 0.664 2 3 cbr 1000 ------- 0 2.0 3.0 205 207
r 0.664032 2 3 cbr 1000 ------- 0 2.0 3.0 179 181
- 0.664032 2 3 cbr 1000 ------- 0 2.0 3.0 205 207
+ 0.6648 2 3 cbr 1000 ------- 0 2.0 3.0 206 208
r 0.664832 2 3 cbr 1000 ------- 0 2.0 3.0 180 182
- 0.664832 2 3 cbr 1000 ------- 0 2.0 3.0 206 208
+ 0.6656 2 3 cbr 1000 ------- 0 2.0 3.0 207 209
r 0.665632 2 3 cbr 1000 ------- 0 2.0 3.0 181 183
- 0.665632 2 3 cbr 1000 ------- 0 2.0 3.0 207 209
+ 0.6664 2 3 cbr 1000 ------- 0 2.0 3.0 208 210
r 0.666432 2 3 cbr 1000 ------- 0 2.0 3.0 182 184
- 0.666432 2 3 cbr 1000 ------- 0 2.0 3.0 208 210
+ 0.6672 2 3 cbr 1000 ------- 0 2.0 3.0 209 211
r 0.667232 2 3 cbr 1000 ------- 0 2.0 3.0 183 185
- 0.667232 2 3 cbr 1000 ------- 0 2.0 3.0 209 211
+ 0.668 2 3 cbr 1000 ------- 0 2.0 3.0 210 212
r 0.668032 2 3 cbr 1000 ------- 0 2.0 3.0 184 186
- 0.668032 2 3 cbr 1000 ------- 0 2.0 3.0 210 212
+ 0.6688 2 3 cbr 1000 ------- 0 2.0 3.0 211 213
r 0.668832 2 3 cbr 1000 ------- 0 2.0 3.0 185 187
- 0.668832 2 3 cbr 1000 ------- 0 2.0 3.0 211 213
+ 0.6696 2 3 cbr 1000 ------- 0 2.0 3.0 212 214
r 0.669632 2 3 cbr 1000 ------- 0 2.0 3.0 186 188
- 0.669632 2 3 cbr 1000 ------- 0 2.0 3.0 212 214
+ 0.6704 2 3 cbr 1000 ------- 0 2.0 3.0 213 215
r 0.670432 2 3 cbr 1000 ------- 0 2.0 3.0 187 189
- 0.670432 2 3 cbr 1000 ------- 0 2.0 3.0 213 215
r 0.670528 3 2 ack 40 ------- 1 4.0 0.0 0 177
+ 0.670528 2 0 ack 40 ------- 1 4.0 0.0 0 177
- 0.670528 2 0 ack 40 ------- 1 4.0 0.0 0 177
+ 0.6712 2 3 cbr 1000 ------- 0 2.0 3.0 214 216
r 0.671232 2 3 cbr 1000 ------- 0 2.0 3.0 188 190
- 0.671232 2 3 cbr 1000 ------- 0 2.0 3.0 214 216