+ 0.5 2 3 cbr 1000 ------- 0 2.0 3.0 0 0
- 0.5 2 3 cbr 1000 ------- 0 2.0 3.0 0 0
+ 0.508 2 3 cbr 1000 ------- 0 2.0 3.0 1 1
- 0.508 2 3 cbr 1000 ------- 0 2.0 3.0 1 1
+ 0.516 2 3 cbr 1000 ------- 0 2.0 3.0 2 2
- 0.516 2 3 cbr 1000 ------- 0 2.0 3.0 2 2
r 0.5208 2 3 cbr 1000 ------- 0 2.0 3.0 0 0
+ 0.524 2 3 cbr 1000 ------- 0 2.0 3.0 3 3
- 0.524 2 3 cbr 1000 ------- 0 2.0 3.0 3 3
r 0.5288 2 3 cbr 1000 ------- 0 2.0 3.0 1 1
+ 0.532 2 3 cbr 1000 ------- 0 2.0 3.0 4 4
- 0.532 2 3 cbr 1000 ------- 0 2.0 3.0 4 4
r 0.5368 2 3 cbr 1000 ------- 0 2.0 3.0 2 2
+ 0.54 2 3 cbr 1000 ------- 0 2.0 3.0 5 5
- 0.54 2 3 cbr 1000 ------- 0 2.0 3.0 5 5
r 0.5448 2 3 cbr 1000 ------- 0 2.0 3.0 3 3
+ 0.548 2 3 cbr 1000 ------- 0 2.0 3.0 6 6
- 0.548 2 3 cbr 1000 ------- 0 2.0 3.0 6 6
r 0.5528 2 3 cbr 1000 ------- 0 2.0 3.0 4 4
+ 0.556 2 3 cbr 1000 ------- 0 2.0 3.0 7 7
- 0.556 2 3 cbr 1000 ------- 0 2.0 3.0 7 7
r 0.5608 2 3 cbr 1000 ------- 0 2.0 3.0 5 5
+ 0.564 2 3 cbr 1000 ------- 0 2.0 3.0 8 8
- 0.564 2 3 cbr 1000 ------- 0 2.0 3.0 8 8
r 0.5688 2 3 cbr 1000 ------- 0 2.0 3.0 6 6
+ 0.572 2 3 cbr 1000 ------- 0 2.0 3.0 9 9
- 0.572 2 3 cbr 1000 ------- 0 2.0 3.0 9 9
r 0.5768 2 3 cbr 1000 ------- 0 2.0 3.0 7 7
+ 0.58 2 3 cbr 1000 ------- 0 2.0 3.0 10 10
- 0.58 2 3 cbr 1000 ------- 0 2.0 3.0 10 10
r 0.5848 2 3 cbr 1000 ------- 0 2.0 3.0 8 8
+ 0.588 2 3 cbr 1000 ------- 0 2.0 3.0 11 11
- 0.588 2 3 cbr 1000 ------- 0 2.0 3.0 11 11
r 0.5928 2 3 cbr 1000 ------- 0 2.0 3.0 9 9
+ 0.596 2 3 cbr 1000 ------- 0 2.0 3.0 12 12
- 0.596 2 3 cbr 1000 ------- 0 2.0 3.0 12 12
+ 0.6 0 2 tcp 40 ------- 1 0.0 4.0 0 13
- 0.6 0 2 tcp 40 ------- 1 0.0 4.0 0 13
r 0.6008 2 3 cbr 1000 ------- 0 2.0 3.0 10 10
+ 0.604 2 3 cbr 1000 ------- 0 2.0 3.0 13 14
- 0.604 2 3 cbr 1000 ------- 0 2.0 3.0 13 14
r 0.6088 2 3 cbr 1000 ------- 0 2.0 3.0 11 11
r 0.610032 0 2 tcp 40 ------- 1 0.0 4.0 0 13
+ 0.610032 2 3 tcp 40 ------- 1 0.0 4.0 0 13
- 0.610032 2 3 tcp 40 ------- 1 0.0 4.0 0 13
+ 0.612 2 3 cbr 1000 ------- 0 2.0 3.0 14 15
- 0.612 2 3 cbr 1000 ------- 0 2.0 3.0 14 15
r 0.6168 2 3 cbr 1000 ------- 0 2.0 3.0 12 12
+ 0.62 2 3 cbr 1000 ------- 0 2.0 3.0 15 16
- 0.62 2 3 cbr 1000 ------- 0 2.0 3.0 15 16
r 0.6248 2 3 cbr 1000 ------- 0 2.0 3.0 13 14
+ 0.628 2 3 cbr 1000 ------- 0 2.0 3.0 16 17
- 0.628 2 3 cbr 1000 ------- 0 2.0 3.0 16 17
r 0.630064 2 3 tcp 40 ------- 1 0.0 4.0 0 13
+ 0.630064 3 4 tcp 40 ------- 1 0.0 4.0 0 13
- 0.630064 3 4 tcp 40 ------- 1 0.0 4.0 0 13
r 0.6328 2 3 cbr 1000 ------- 0 2.0 3.0 14 15
+ 0.636 2 3 cbr 1000 ------- 0 2.0 3.0 17 18
- 0.636 2 3 cbr 1000 ------- 0 2.0 3.0 17 18
r 0.640096 3 4 tcp 40 ------- 1 0.0 4.0 0 13
+ 0.640096 4 3 ack 40 ------- 1 4.0 0.0 0 19
- 0.640096 4 3 ack 40 ------- 1 4.0 0.0 0 19
r 0.6408 2 3 cbr 1000 ------- 0 2.0 3.0 15 16
+ 0.644 2 3 cbr 1000 ------- 0 2.0 3.0 18 20
- 0.644 2 3 cbr 1000 ------- 0 2.0 3.0 18 20
r 0.6488 2 3 cbr 1000 ------- 0 2.0 3.0 16 17
r 0.650128 4 3 ack 40 ------- 1 4.0 0.0 0 19
+ 0.650128 3 2 ack 40 ------- 1 4.0 0.0 0 19
- 0.650128 3 2 ack 40 ------- 1 4.0 0.0 0 19
+ 0.652 2 3 cbr 1000 ------- 0 2.0 3.0 19 21
- 0.652 2 3 cbr 1000 ------- 0 2.0 3.0 19 21
r 0.6568 2 3 cbr 1000 ------- 0 2.0 3.0 17 18
+ 0.66 2 3 cbr 1000 ------- 0 2.0 3.0 20 22
- 0.66 2 3 cbr 1000 ------- 0 2.0 3.0 20 22
r 0.6648 2 3 cbr 1000 ------- 0 2.0 3.0 18 20
+ 0.668 2 3 cbr 1000 ------- 0 2.0 3.0 21 23
- 0.668 2 3 cbr 1000 ------- 0 2.0 3.0 21 23
r 0.67016 3 2 ack 40 ------- 1 4.0 0.0 0 19
+ 0.67016 2 0 ack 40 ------- 1 4.0 0.0 0 19
- 0.67016 2 0 ack 40 ------- 1 4.0 0.0 0 19
r 0.6728 2 3 cbr 1000 ------- 0 2.0 3.0 19 21
+ 0.676 2 3 cbr 1000 ------- 0 2.0 3.0 22 24
- 0.676 2 3 cbr 1000 ------- 0 2.0 3.0 22 24
r 0.680192 2 0 ack 40 ------- 1 4.0 0.0 0 19
+ 0.680192 0 2 tcp 1040 ------- 1 0.0 4.0 1 25
- 0.680192 0 2 tcp 1040 ------- 1 0.0 4.0 1 25
+ 0.680192 0 2 tcp 1040 ------- 1 0.0 4.0 2 26
r 0.6808 2 3 cbr 1000 ------- 0 2.0 3.0 20 22
- 0.681024 0 2 tcp 1040 ------- 1 0.0 4.0 2 26
+ 0.684 2 3 cbr 1000 ------- 0 2.0 3.0 23 27
- 0.684 2 3 cbr 1000 ------- 0 2.0 3.0 23 27
r 0.6888 2 3 cbr 1000 ------- 0 2.0 3.0 21 23
r 0.691024 0 2 tcp 1040 ------- 1 0.0 4.0 1 25
+ 0.691024 2 3 tcp 1040 ------- 1 0.0 4.0 1 25
- 0.691024 2 3 tcp 1040 ------- 1 0.0 4.0 1 25
r 0.691856 0 2 tcp 1040 ------- 1 0.0 4.0 2 26
+ 0.691856 2 3 tcp 1040 ------- 1 0.0 4.0 2 26
- 0.691856 2 3 tcp 1040 ------- 1 0.0 4.0 2 26
+ 0.692 2 3 cbr 1000 ------- 0 2.0 3.0 24 28
- 0.692688 2 3 cbr 1000 ------- 0 2.0 3.0 24 28
r 0.6968 2 3 cbr 1000 ------- 0 2.0 3.0 22 24
+ 0.7 2 3 cbr 1000 ------- 0 2.0 3.0 25 29
- 0.7 2 3 cbr 1000 ------- 0 2.0 3.0 25 29
r 0.7048 2 3 cbr 1000 ------- 0 2.0 3.0 23 27
+ 0.708 2 3 cbr 1000 ------- 0 2.0 3.0 26 30
- 0.708 2 3 cbr 1000 ------- 0 2.0 3.0 26 30
r 0.711856 2 3 tcp 1040 ------- 1 0.0 4.0 1 25
+ 0.711856 3 4 tcp 1040 ------- 1 0.0 4.0 1 25
- 0.711856 3 4 tcp 1040 ------- 1 0.0 4.0 1 25
r 0.712688 2 3 tcp 1040 ------- 1 0.0 4.0 2 26
+ 0.712688 3 4 tcp 1040 ------- 1 0.0 4.0 2 26
- 0.712688 3 4 tcp 1040 ------- 1 0.0 4.0 2 26
r 0.713488 2 3 cbr 1000 ------- 0 2.0 3.0 24 28
+ 0.716 2 3 cbr 1000 ------- 0 2.0 3.0 27 31
- 0.716 2 3 cbr 1000 ------- 0 2.0 3.0 27 31
r 0.7208 2 3 cbr 1000 ------- 0 2.0 3.0 25 29
r 0.722688 3 4 tcp 1040 ------- 1 0.0 4.0 1 25
+ 0.722688 4 3 ack 40 ------- 1 4.0 0.0 1 32
- 0.722688 4 3 ack 40 ------- 1 4.0 0.0 1 32
r 0.72352 3 4 tcp 1040 ------- 1 0.0 4.0 2 26
+ 0.72352 4 3 ack 40 ------- 1 4.0 0.0 2 33
- 0.72352 4 3 ack 40 ------- 1 4.0 0.0 2 33
+ 0.724 2 3 cbr 1000 ------- 0 2.0 3.0 28 34
- 0.724 2 3 cbr 1000 ------- 0 2.0 3.0 28 34
r 0.7288 2 3 cbr 1000 ------- 0 2.0 3.0 26 30
+ 0.732 2 3 cbr 1000 ------- 0 2.0 3.0 29 35
- 0.732 2 3 cbr 1000 ------- 0 2.0 3.0 29 35
r 0.73272 4 3 ack 40 ------- 1 4.0 0.0 1 32
+ 0.73272 3 2 ack 40 ------- 1 4.0 0.0 1 32
- 0.73272 3 2 ack 40 ------- 1 4.0 0.0 1 32
r 0.733552 4 3 ack 40 ------- 1 4.0 0.0 2 33
+ 0.733552 3 2 ack 40 ------- 1 4.0 0.0 2 33
- 0.733552 3 2 ack 40 ------- 1 4.0 0.0 2 33
r 0.7368 2 3 cbr 1000 ------- 0 2.0 3.0 27 31
+ 0.74 2 3 cbr 1000 ------- 0 2.0 3.0 30 36
- 0.74 2 3 cbr 1000 ------- 0 2.0 3.0 30 36
r 0.7448 2 3 cbr 1000 ------- 0 2.0 3.0 28 34
+ 0.748 2 3 cbr 1000 ------- 0 2.0 3.0 31 37
- 0.748 2 3 cbr 1000 ------- 0 2.0 3.0 31 37
r 0.752752 3 2 ack 40 ------- 1 4.0 0.0 1 32
+ 0.752752 2 0 ack 40 ------- 1 4.0 0.0 1 32
- 0.752752 2 0 ack 40 ------- 1 4.0 0.0 1 32
r 0.7528 2 3 cbr 1000 ------- 0 2.0 3.0 29 35
r 0.753584 3 2 ack 40 ------- 1 4.0 0.0 2 33
+ 0.753584 2 0 ack 40 ------- 1 4.0 0.0 2 33
- 0.753584 2 0 ack 40 ------- 1 4.0 0.0 2 33
+ 0.756 2 3 cbr 1000 ------- 0 2.0 3.0 32 38
- 0.756 2 3 cbr 1000 ------- 0 2.0 3.0 32 38
r 0.7608 2 3 cbr 1000 ------- 0 2.0 3.0 30 36
r 0.762784 2 0 ack 40 ------- 1 4.0 0.0 1 32
+ 0.762784 0 2 tcp 1040 ------- 1 0.0 4.0 3 39
- 0.762784 0 2 tcp 1040 ------- 1 0.0 4.0 3 39
+ 0.762784 0 2 tcp 1040 ------- 1 0.0 4.0 4 40
r 0.763616 2 0 ack 40 ------- 1 4.0 0.0 2 33
+ 0.763616 0 2 tcp 1040 ------- 1 0.0 4.0 5 41
+ 0.763616 0 2 tcp 1040 ------- 1 0.0 4.0 6 42
- 0.763616 0 2 tcp 1040 ------- 1 0.0 4.0 4 40
+ 0.764 2 3 cbr 1000 ------- 0 2.0 3.0 33 43
- 0.764 2 3 cbr 1000 ------- 0 2.0 3.0 33 43
- 0.764448 0 2 tcp 1040 ------- 1 0.0 4.0 5 41
- 0.76528 0 2 tcp 1040 ------- 1 0.0 4.0 6 42
r 0.7688 2 3 cbr 1000 ------- 0 2.0 3.0 31 37
+ 0.772 2 3 cbr 1000 ------- 0 2.0 3.0 34 44
- 0.772 2 3 cbr 1000 ------- 0 2.0 3.0 34 44
r 0.773616 0 2 tcp 1040 ------- 1 0.0 4.0 3 39
+ 0.773616 2 3 tcp 1040 ------- 1 0.0 4.0 3 39
- 0.773616 2 3 tcp 1040 ------- 1 0.0 4.0 3 39
r 0.774448 0 2 tcp 1040 ------- 1 0.0 4.0 4 40
+ 0.774448 2 3 tcp 1040 ------- 1 0.0 4.0 4 40
- 0.774448 2 3 tcp 1040 ------- 1 0.0 4.0 4 40
r 0.77528 0 2 tcp 1040 ------- 1 0.0 4.0 5 41
+ 0.77528 2 3 tcp 1040 ------- 1 0.0 4.0 5 41
- 0.77528 2 3 tcp 1040 ------- 1 0.0 4.0 5 41
r 0.776112 0 2 tcp 1040 ------- 1 0.0 4.0 6 42
+ 0.776112 2 3 tcp 1040 ------- 1 0.0 4.0 6 42
- 0.776112 2 3 tcp 1040 ------- 1 0.0 4.0 6 42
r 0.7768 2 3 cbr 1000 ------- 0 2.0 3.0 32 38
+ 0.78 2 3 cbr 1000 ------- 0 2.0 3.0 35 45
- 0.78 2 3 cbr 1000 ------- 0 2.0 3.0 35 45
r 0.7848 2 3 cbr 1000 ------- 0 2.0 3.0 33 43
+ 0.788 2 3 cbr 1000 ------- 0 2.0 3.0 36 46
- 0.788 2 3 cbr 1000 ------- 0 2.0 3.0 36 46
r 0.7928 2 3 cbr 1000 ------- 0 2.0 3.0 34 44
r 0.794448 2 3 tcp 1040 ------- 1 0.0 4.0 3 39
+ 0.794448 3 4 tcp 1040 ------- 1 0.0 4.0 3 39
- 0.794448 3 4 tcp 1040 ------- 1 0.0 4.0 3 39
r 0.79528 2 3 tcp 1040 ------- 1 0.0 4.0 4 40
+ 0.79528 3 4 tcp 1040 ------- 1 0.0 4.0 4 40
- 0.79528 3 4 tcp 1040 ------- 1 0.0 4.0 4 40
+ 0.796 2 3 cbr 1000 ------- 0 2.0 3.0 37 47
- 0.796 2 3 cbr 1000 ------- 0 2.0 3.0 37 47
r 0.796112 2 3 tcp 1040 ------- 1 0.0 4.0 5 41
+ 0.796112 3 4 tcp 1040 ------- 1 0.0 4.0 5 41
- 0.796112 3 4 tcp 1040 ------- 1 0.0 4.0 5 41
r 0.796944 2 3 tcp 1040 ------- 1 0.0 4.0 6 42
+ 0.796944 3 4 tcp 1040 ------- 1 0.0 4.0 6 42
- 0.796944 3 4 tcp 1040 ------- 1 0.0 4.0 6 42
r 0.8008 2 3 cbr 1000 ------- 0 2.0 3.0 35 45
+ 0.804 2 3 cbr 1000 ------- 0 2.0 3.0 38 48
- 0.804 2 3 cbr 1000 ------- 0 2.0 3.0 38 48
r 0.80528 3 4 tcp 1040 ------- 1 0.0 4.0 3 39
+ 0.80528 4 3 ack 40 ------- 1 4.0 0.0 3 49
- 0.80528 4 3 ack 40 ------- 1 4.0 0.0 3 49
r 0.806112 3 4 tcp 1040 ------- 1 0.0 4.0 4 40
+ 0.806112 4 3 ack 40 ------- 1 4.0 0.0 4 50
- 0.806112 4 3 ack 40 ------- 1 4.0 0.0 4 50
r 0.806944 3 4 tcp 1040 ------- 1 0.0 4.0 5 41
+ 0.806944 4 3 ack 40 ------- 1 4.0 0.0 5 51
- 0.806944 4 3 ack 40 ------- 1 4.0 0.0 5 51
r 0.807776 3 4 tcp 1040 ------- 1 0.0 4.0 6 42
+ 0.807776 4 3 ack 40 ------- 1 4.0 0.0 6 52
- 0.807776 4 3 ack 40 ------- 1 4.0 0.0 6 52
r 0.8088 2 3 cbr 1000 ------- 0 2.0 3.0 36 46
+ 0.812 2 3 cbr 1000 ------- 0 2.0 3.0 39 53
- 0.812 2 3 cbr 1000 ------- 0 2.0 3.0 39 53
r 0.815312 4 3 ack 40 ------- 1 4.0 0.0 3 49
+ 0.815312 3 2 ack 40 ------- 1 4.0 0.0 3 49
- 0.815312 3 2 ack 40 ------- 1 4.0 0.0 3 49
r 0.816144 4 3 ack 40 ------- 1 4.0 0.0 4 50
+ 0.816144 3 2 ack 40 ------- 1 4.0 0.0 4 50
- 0.816144 3 2 ack 40 ------- 1 4.0 0.0 4 50
r 0.8168 2 3 cbr 1000 ------- 0 2.0 3.0 37 47
r 0.816976 4 3 ack 40 ------- 1 4.0 0.0 5 51
+ 0.816976 3 2 ack 40 ------- 1 4.0 0.0 5 51
- 0.816976 3 2 ack 40 ------- 1 4.0 0.0 5 51
r 0.817808 4 3 ack 40 ------- 1 4.0 0.0 6 52
+ 0.817808 3 2 ack 40 ------- 1 4.0 0.0 6 52
- 0.817808 3 2 ack 40 ------- 1 4.0 0.0 6 52
+ 0.82 2 3 cbr 1000 ------- 0 2.0 3.0 40 54
- 0.82 2 3 cbr 1000 ------- 0 2.0 3.0 40 54
r 0.8248 2 3 cbr 1000 ------- 0 2.0 3.0 38 48
+ 0.828 2 3 cbr 1000 ------- 0 2.0 3.0 41 55
- 0.828 2 3 cbr 1000 ------- 0 2.0 3.0 41 55
r 0.8328 2 3 cbr 1000 ------- 0 2.0 3.0 39 53
r 0.835344 3 2 ack 40 ------- 1 4.0 0.0 3 49
+ 0.835344 2 0 ack 40 ------- 1 4.0 0.0 3 49
- 0.835344 2 0 ack 40 ------- 1 4.0 0.0 3 49
+ 0.836 2 3 cbr 1000 ------- 0 2.0 3.0 42 56
- 0.836 2 3 cbr 1000 ------- 0 2.0 3.0 42 56
r 0.836176 3 2 ack 40 ------- 1 4.0 0.0 4 50
+ 0.836176 2 0 ack 40 ------- 1 4.0 0.0 4 50
- 0.836176 2 0 ack 40 ------- 1 4.0 0.0 4 50
r 0.837008 3 2 ack 40 ------- 1 4.0 0.0 5 51
+ 0.837008 2 0 ack 40 ------- 1 4.0 0.0 5 51
- 0.837008 2 0 ack 40 ------- 1 4.0 0.0 5 51
r 0.83784 3 2 ack 40 ------- 1 4.0 0.0 6 52
+ 0.83784 2 0 ack 40 ------- 1 4.0 0.0 6 52
- 0.83784 2 0 ack 40 ------- 1 4.0 0.0 6 52
r 0.8408 2 3 cbr 1000 ------- 0 2.0 3.0 40 54
+ 0.844 2 3 cbr 1000 ------- 0 2.0 3.0 43 57
- 0.844 2 3 cbr 1000 ------- 0 2.0 3.0 43 57
r 0.845376 2 0 ack 40 ------- 1 4.0 0.0 3 49
+ 0.845376 0 2 tcp 1040 ------- 1 0.0 4.0 7 58
- 0.845376 0 2 tcp 1040 ------- 1 0.0 4.0 7 58
+ 0.845376 0 2 tcp 1040 ------- 1 0.0 4.0 8 59
r 0.846208 2 0 ack 40 ------- 1 4.0 0.0 4 50
+ 0.846208 0 2 tcp 1040 ------- 1 0.0 4.0 9 60
+ 0.846208 0 2 tcp 1040 ------- 1 0.0 4.0 10 61
- 0.846208 0 2 tcp 1040 ------- 1 0.0 4.0 8 59
r 0.84704 2 0 ack 40 ------- 1 4.0 0.0 5 51
+ 0.84704 0 2 tcp 1040 ------- 1 0.0 4.0 11 62
+ 0.84704 0 2 tcp 1040 ------- 1 0.0 4.0 12 63
- 0.84704 0 2 tcp 1040 ------- 1 0.0 4.0 9 60
r 0.847872 2 0 ack 40 ------- 1 4.0 0.0 6 52
+ 0.847872 0 2 tcp 1040 ------- 1 0.0 4.0 13 64
+ 0.847872 0 2 tcp 1040 ------- 1 0.0 4.0 14 65
- 0.847872 0 2 tcp 1040 ------- 1 0.0 4.0 10 61
- 0.848704 0 2 tcp 1040 ------- 1 0.0 4.0 11 62
r 0.8488 2 3 cbr 1000 ------- 0 2.0 3.0 41 55
- 0.849536 0 2 tcp 1040 ------- 1 0.0 4.0 12 63
- 0.850368 0 2 tcp 1040 ------- 1 0.0 4.0 13 64
- 0.8512 0 2 tcp 1040 ------- 1 0.0 4.0 14 65
+ 0.852 2 3 cbr 1000 ------- 0 2.0 3.0 44 66
- 0.852 2 3 cbr 1000 ------- 0 2.0 3.0 44 66
r 0.856208 0 2 tcp 1040 ------- 1 0.0 4.0 7 58
+ 0.856208 2 3 tcp 1040 ------- 1 0.0 4.0 7 58
- 0.856208 2 3 tcp 1040 ------- 1 0.0 4.0 7 58
r 0.8568 2 3 cbr 1000 ------- 0 2.0 3.0 42 56
r 0.85704 0 2 tcp 1040 ------- 1 0.0 4.0 8 59
+ 0.85704 2 3 tcp 1040 ------- 1 0.0 4.0 8 59
- 0.85704 2 3 tcp 1040 ------- 1 0.0 4.0 8 59
r 0.857872 0 2 tcp 1040 ------- 1 0.0 4.0 9 60
+ 0.857872 2 3 tcp 1040 ------- 1 0.0 4.0 9 60
- 0.857872 2 3 tcp 1040 ------- 1 0.0 4.0 9 60
r 0.858704 0 2 tcp 1040 ------- 1 0.0 4.0 10 61
+ 0.858704 2 3 tcp 1040 ------- 1 0.0 4.0 10 61
- 0.858704 2 3 tcp 1040 ------- 1 0.0 4.0 10 61
r 0.859536 0 2 tcp 1040 ------- 1 0.0 4.0 11 62
+ 0.859536 2 3 tcp 1040 ------- 1 0.0 4.0 11 62
- 0.859536 2 3 tcp 1040 ------- 1 0.0 4.0 11 62
+ 0.86 2 3 cbr 1000 ------- 0 2.0 3.0 45 67
r 0.860368 0 2 tcp 1040 ------- 1 0.0 4.0 12 63
+ 0.860368 2 3 tcp 1040 ------- 1 0.0 4.0 12 63
- 0.860368 2 3 cbr 1000 ------- 0 2.0 3.0 45 67
- 0.861168 2 3 tcp 1040 ------- 1 0.0 4.0 12 63
r 0.8612 0 2 tcp 1040 ------- 1 0.0 4.0 13 64
+ 0.8612 2 3 tcp 1040 ------- 1 0.0 4.0 13 64
- 0.862 2 3 tcp 1040 ------- 1 0.0 4.0 13 64
r 0.862032 0 2 tcp 1040 ------- 1 0.0 4.0 14 65
+ 0.862032 2 3 tcp 1040 ------- 1 0.0 4.0 14 65
- 0.862832 2 3 tcp 1040 ------- 1 0.0 4.0 14 65
r 0.8648 2 3 cbr 1000 ------- 0 2.0 3.0 43 57
+ 0.868 2 3 cbr 1000 ------- 0 2.0 3.0 46 68
- 0.868 2 3 cbr 1000 ------- 0 2.0 3.0 46 68
r 0.8728 2 3 cbr 1000 ------- 0 2.0 3.0 44 66
+ 0.876 2 3 cbr 1000 ------- 0 2.0 3.0 47 69
- 0.876 2 3 cbr 1000 ------- 0 2.0 3.0 47 69
r 0.87704 2 3 tcp 1040 ------- 1 0.0 4.0 7 58
+ 0.87704 3 4 tcp 1040 ------- 1 0.0 4.0 7 58
- 0.87704 3 4 tcp 1040 ------- 1 0.0 4.0 7 58
r 0.877872 2 3 tcp 1040 ------- 1 0.0 4.0 8 59
+ 0.877872 3 4 tcp 1040 ------- 1 0.0 4.0 8 59
- 0.877872 3 4 tcp 1040 ------- 1 0.0 4.0 8 59
r 0.878704 2 3 tcp 1040 ------- 1 0.0 4.0 9 60
+ 0.878704 3 4 tcp 1040 ------- 1 0.0 4.0 9 60
- 0.878704 3 4 tcp 1040 ------- 1 0.0 4.0 9 60
r 0.879536 2 3 tcp 1040 ------- 1 0.0 4.0 10 61
+ 0.879536 3 4 tcp 1040 ------- 1 0.0 4.0 10 61
- 0.879536 3 4 tcp 1040 ------- 1 0.0 4.0 10 61
r 0.880368 2 3 tcp 1040 ------- 1 0.0 4.0 11 62
+ 0.880368 3 4 tcp 1040 ------- 1 0.0 4.0 11 62
- 0.880368 3 4 tcp 1040 ------- 1 0.0 4.0 11 62
r 0.881168 2 3 cbr 1000 ------- 0 2.0 3.0 45 67
r 0.882 2 3 tcp 1040 ------- 1 0.0 4.0 12 63
+ 0.882 3 4 tcp 1040 ------- 1 0.0 4.0 12 63
- 0.882 3 4 tcp 1040 ------- 1 0.0 4.0 12 63
r 0.882832 2 3 tcp 1040 ------- 1 0.0 4.0 13 64
+ 0.882832 3 4 tcp 1040 ------- 1 0.0 4.0 13 64
- 0.882832 3 4 tcp 1040 ------- 1 0.0 4.0 13 64
r 0.883664 2 3 tcp 1040 ------- 1 0.0 4.0 14 65
+ 0.883664 3 4 tcp 1040 ------- 1 0.0 4.0 14 65
- 0.883664 3 4 tcp 1040 ------- 1 0.0 4.0 14 65
+ 0.884 2 3 cbr 1000 ------- 0 2.0 3.0 48 70
- 0.884 2 3 cbr 1000 ------- 0 2.0 3.0 48 70
r 0.887872 3 4 tcp 1040 ------- 1 0.0 4.0 7 58
+ 0.887872 4 3 ack 40 ------- 1 4.0 0.0 7 71
- 0.887872 4 3 ack 40 ------- 1 4.0 0.0 7 71
r 0.888704 3 4 tcp 1040 ------- 1 0.0 4.0 8 59
+ 0.888704 4 3 ack 40 ------- 1 4.0 0.0 8 72
- 0.888704 4 3 ack 40 ------- 1 4.0 0.0 8 72
r 0.8888 2 3 cbr 1000 ------- 0 2.0 3.0 46 68
r 0.889536 3 4 tcp 1040 ------- 1 0.0 4.0 9 60
+ 0.889536 4 3 ack 40 ------- 1 4.0 0.0 9 73
- 0.889536 4 3 ack 40 ------- 1 4.0 0.0 9 73
r 0.890368 3 4 tcp 1040 ------- 1 0.0 4.0 10 61
+ 0.890368 4 3 ack 40 ------- 1 4.0 0.0 10 74
- 0.890368 4 3 ack 40 ------- 1 4.0 0.0 10 74
r 0.8912 3 4 tcp 1040 ------- 1 0.0 4.0 11 62
+ 0.8912 4 3 ack 40 ------- 1 4.0 0.0 11 75
- 0.8912 4 3 ack 40 ------- 1 4.0 0.0 11 75
+ 0.892 2 3 cbr 1000 ------- 0 2.0 3.0 49 76
- 0.892 2 3 cbr 1000 ------- 0 2.0 3.0 49 76
r 0.892832 3 4 tcp 1040 ------- 1 0.0 4.0 12 63
+ 0.892832 4 3 ack 40 ------- 1 4.0 0.0 12 77
- 0.892832 4 3 ack 40 ------- 1 4.0 0.0 12 77
r 0.893664 3 4 tcp 1040 ------- 1 0.0 4.0 13 64
+ 0.893664 4 3 ack 40 ------- 1 4.0 0.0 13 78
- 0.893664 4 3 ack 40 ------- 1 4.0 0.0 13 78
r 0.894496 3 4 tcp 1040 ------- 1 0.0 4.0 14 65
+ 0.894496 4 3 ack 40 ------- 1 4.0 0.0 14 79
- 0.894496 4 3 ack 40 ------- 1 4.0 0.0 14 79
r 0.8968 2 3 cbr 1000 ------- 0 2.0 3.0 47 69
r 0.897904 4 3 ack 40 ------- 1 4.0 0.0 7 71
+ 0.897904 3 2 ack 40 ------- 1 4.0 0.0 7 71
- 0.897904 3 2 ack 40 ------- 1 4.0 0.0 7 71
r 0.898736 4 3 ack 40 ------- 1 4.0 0.0 8 72
+ 0.898736 3 2 ack 40 ------- 1 4.0 0.0 8 72
- 0.898736 3 2 ack 40 ------- 1 4.0 0.0 8 72
r 0.899568 4 3 ack 40 ------- 1 4.0 0.0 9 73
+ 0.899568 3 2 ack 40 ------- 1 4.0 0.0 9 73
- 0.899568 3 2 ack 40 ------- 1 4.0 0.0 9 73
+ 0.9 2 3 cbr 1000 ------- 0 2.0 3.0 50 80
- 0.9 2 3 cbr 1000 ------- 0 2.0 3.0 50 80
r 0.9004 4 3 ack 40 ------- 1 4.0 0.0 10 74
+ 0.9004 3 2 ack 40 ------- 1 4.0 0.0 10 74
- 0.9004 3 2 ack 40 ------- 1 4.0 0.0 10 74
r 0.901232 4 3 ack 40 ------- 1 4.0 0.0 11 75
+ 0.901232 3 2 ack 40 ------- 1 4.0 0.0 11 75
- 0.901232 3 2 ack 40 ------- 1 4.0 0.0 11 75
r 0.902864 4 3 ack 40 ------- 1 4.0 0.0 12 77
+ 0.902864 3 2 ack 40 ------- 1 4.0 0.0 12 77
- 0.902864 3 2 ack 40 ------- 1 4.0 0.0 12 77
r 0.903696 4 3 ack 40 ------- 1 4.0 0.0 13 78
+ 0.903696 3 2 ack 40 ------- 1 4.0 0.0 13 78
- 0.903696 3 2 ack 40 ------- 1 4.0 0.0 13 78
r 0.904528 4 3 ack 40 ------- 1 4.0 0.0 14 79
+ 0.904528 3 2 ack 40 ------- 1 4.0 0.0 14 79
- 0.904528 3 2 ack 40 ------- 1 4.0 0.0 14 79
r 0.9048 2 3 cbr 1000 ------- 0 2.0 3.0 48 70
+ 0.908 2 3 cbr 1000 ------- 0 2.0 3.0 51 81
- 0.908 2 3 cbr 1000 ------- 0 2.0 3.0 51 81
r 0.9128 2 3 cbr 1000 ------- 0 2.0 3.0 49 76
+ 0.916 2 3 cbr 1000 ------- 0 2.0 3.0 52 82
- 0.916 2 3 cbr 1000 ------- 0 2.0 3.0 52 82
r 0.917936 3 2 ack 40 ------- 1 4.0 0.0 7 71
+ 0.917936 2 0 ack 40 ------- 1 4.0 0.0 7 71
- 0.917936 2 0 ack 40 ------- 1 4.0 0.0 7 71
r 0.918768 3 2 ack 40 ------- 1 4.0 0.0 8 72
+ 0.918768 2 0 ack 40 ------- 1 4.0 0.0 8 72
- 0.918768 2 0 ack 40 ------- 1 4.0 0.0 8 72
r 0.9196 3 2 ack 40 ------- 1 4.0 0.0 9 73
+ 0.9196 2 0 ack 40 ------- 1 4.0 0.0 9 73
- 0.9196 2 0 ack 40 ------- 1 4.0 0.0 9 73
r 0.920432 3 2 ack 40 ------- 1 4.0 0.0 10 74
+ 0.920432 2 0 ack 40 ------- 1 4.0 0.0 10 74
- 0.920432 2 0 ack 40 ------- 1 4.0 0.0 10 74
r 0.9208 2 3 cbr 1000 ------- 0 2.0 3.0 50 80
r 0.921264 3 2 ack 40 ------- 1 4.0 0.0 11 75
+ 0.921264 2 0 ack 40 ------- 1 4.0 0.0 11 75
- 0.921264 2 0 ack 40 ------- 1 4.0 0.0 11 75
r 0.922896 3 2 ack 40 ------- 1 4.0 0.0 12 77
+ 0.922896 2 0 ack 40 ------- 1 4.0 0.0 12 77
- 0.922896 2 0 ack 40 ------- 1 4.0 0.0 12 77
r 0.923728 3 2 ack 40 ------- 1 4.0 0.0 13 78
+ 0.923728 2 0 ack 40 ------- 1 4.0 0.0 13 78
- 0.923728 2 0 ack 40 ------- 1 4.0 0.0 13 78
+ 0.924 2 3 cbr 1000 ------- 0 2.0 3.0 53 83
- 0.924 2 3 cbr 1000 ------- 0 2.0 3.0 53 83
r 0.92456 3 2 ack 40 ------- 1 4.0 0.0 14 79
+ 0.92456 2 0 ack 40 ------- 1 4.0 0.0 14 79
- 0.92456 2 0 ack 40 ------- 1 4.0 0.0 14 79
r 0.927968 2 0 ack 40 ------- 1 4.0 0.0 7 71
+ 0.927968 0 2 tcp 1040 ------- 1 0.0 4.0 15 84
- 0.927968 0 2 tcp 1040 ------- 1 0.0 4.0 15 84
+ 0.927968 0 2 tcp 1040 ------- 1 0.0 4.0 16 85
r 0.9288 2 0 ack 40 ------- 1 4.0 0.0 8 72
+ 0.9288 0 2 tcp 1040 ------- 1 0.0 4.0 17 86
+ 0.9288 0 2 tcp 1040 ------- 1 0.0 4.0 18 87
- 0.9288 0 2 tcp 1040 ------- 1 0.0 4.0 16 85
r 0.9288 2 3 cbr 1000 ------- 0 2.0 3.0 51 81
r 0.929632 2 0 ack 40 ------- 1 4.0 0.0 9 73
+ 0.929632 0 2 tcp 1040 ------- 1 0.0 4.0 19 88
+ 0.929632 0 2 tcp 1040 ------- 1 0.0 4.0 20 89
- 0.929632 0 2 tcp 1040 ------- 1 0.0 4.0 17 86
r 0.930464 2 0 ack 40 ------- 1 4.0 0.0 10 74
+ 0.930464 0 2 tcp 1040 ------- 1 0.0 4.0 21 90
+ 0.930464 0 2 tcp 1040 ------- 1 0.0 4.0 22 91
- 0.930464 0 2 tcp 1040 ------- 1 0.0 4.0 18 87
r 0.931296 2 0 ack 40 ------- 1 4.0 0.0 11 75
+ 0.931296 0 2 tcp 1040 ------- 1 0.0 4.0 23 92
+ 0.931296 0 2 tcp 1040 ------- 1 0.0 4.0 24 93
- 0.931296 0 2 tcp 1040 ------- 1 0.0 4.0 19 88
+ 0.932 2 3 cbr 1000 ------- 0 2.0 3.0 54 94
- 0.932 2 3 cbr 1000 ------- 0 2.0 3.0 54 94
- 0.932128 0 2 tcp 1040 ------- 1 0.0 4.0 20 89
r 0.932928 2 0 ack 40 ------- 1 4.0 0.0 12 77
+ 0.932928 0 2 tcp 1040 ------- 1 0.0 4.0 25 95
+ 0.932928 0 2 tcp 1040 ------- 1 0.0 4.0 26 96
- 0.93296 0 2 tcp 1040 ------- 1 0.0 4.0 21 90
r 0.93376 2 0 ack 40 ------- 1 4.0 0.0 13 78
+ 0.93376 0 2 tcp 1040 ------- 1 0.0 4.0 27 97
+ 0.93376 0 2 tcp 1040 ------- 1 0.0 4.0 28 98
- 0.933792 0 2 tcp 1040 ------- 1 0.0 4.0 22 91
r 0.934592 2 0 ack 40 ------- 1 4.0 0.0 14 79
+ 0.934592 0 2 tcp 1040 ------- 1 0.0 4.0 29 99
+ 0.934592 0 2 tcp 1040 ------- 1 0.0 4.0 30 100
- 0.934624 0 2 tcp 1040 ------- 1 0.0 4.0 23 92
- 0.935456 0 2 tcp 1040 ------- 1 0.0 4.0 24 93
- 0.936288 0 2 tcp 1040 ------- 1 0.0 4.0 25 95
r 0.9368 2 3 cbr 1000 ------- 0 2.0 3.0 52 82
- 0.93712 0 2 tcp 1040 ------- 1 0.0 4.0 26 96
- 0.937952 0 2 tcp 1040 ------- 1 0.0 4.0 27 97
- 0.938784 0 2 tcp 1040 ------- 1 0.0 4.0 28 98
r 0.9388 0 2 tcp 1040 ------- 1 0.0 4.0 15 84
+ 0.9388 2 3 tcp 1040 ------- 1 0.0 4.0 15 84
- 0.9388 2 3 tcp 1040 ------- 1 0.0 4.0 15 84
- 0.939616 0 2 tcp 1040 ------- 1 0.0 4.0 29 99
r 0.939632 0 2 tcp 1040 ------- 1 0.0 4.0 16 85
+ 0.939632 2 3 tcp 1040 ------- 1 0.0 4.0 16 85
- 0.939632 2 3 tcp 1040 ------- 1 0.0 4.0 16 85
+ 0.94 2 3 cbr 1000 ------- 0 2.0 3.0 55 101
- 0.940448 0 2 tcp 1040 ------- 1 0.0 4.0 30 100
r 0.940464 0 2 tcp 1040 ------- 1 0.0 4.0 17 86
+ 0.940464 2 3 tcp 1040 ------- 1 0.0 4.0 17 86
- 0.940464 2 3 cbr 1000 ------- 0 2.0 3.0 55 101
- 0.941264 2 3 tcp 1040 ------- 1 0.0 4.0 17 86
r 0.941296 0 2 tcp 1040 ------- 1 0.0 4.0 18 87
+ 0.941296 2 3 tcp 1040 ------- 1 0.0 4.0 18 87
- 0.942096 2 3 tcp 1040 ------- 1 0.0 4.0 18 87
r 0.942128 0 2 tcp 1040 ------- 1 0.0 4.0 19 88
+ 0.942128 2 3 tcp 1040 ------- 1 0.0 4.0 19 88
- 0.942928 2 3 tcp 1040 ------- 1 0.0 4.0 19 88
r 0.94296 0 2 tcp 1040 ------- 1 0.0 4.0 20 89
+ 0.94296 2 3 tcp 1040 ------- 1 0.0 4.0 20 89
- 0.94376 2 3 tcp 1040 ------- 1 0.0 4.0 20 89
r 0.943792 0 2 tcp 1040 ------- 1 0.0 4.0 21 90
+ 0.943792 2 3 tcp 1040 ------- 1 0.0 4.0 21 90
- 0.944592 2 3 tcp 1040 ------- 1 0.0 4.0 21 90
r 0.944624 0 2 tcp 1040 ------- 1 0.0 4.0 22 91
+ 0.944624 2 3 tcp 1040 ------- 1 0.0 4.0 22 91
r 0.9448 2 3 cbr 1000 ------- 0 2.0 3.0 53 83
- 0.945424 2 3 tcp 1040 ------- 1 0.0 4.0 22 91
r 0.945456 0 2 tcp 1040 ------- 1 0.0 4.0 23 92
+ 0.945456 2 3 tcp 1040 ------- 1 0.0 4.0 23 92
- 0.946256 2 3 tcp 1040 ------- 1 0.0 4.0 23 92
r 0.946288 0 2 tcp 1040 ------- 1 0.0 4.0 24 93
+ 0.946288 2 3 tcp 1040 ------- 1 0.0 4.0 24 93
- 0.947088 2 3 tcp 1040 ------- 1 0.0 4.0 24 93
r 0.94712 0 2 tcp 1040 ------- 1 0.0 4.0 25 95
+ 0.94712 2 3 tcp 1040 ------- 1 0.0 4.0 25 95
- 0.94792 2 3 tcp 1040 ------- 1 0.0 4.0 25 95
r 0.947952 0 2 tcp 1040 ------- 1 0.0 4.0 26 96
+ 0.947952 2 3 tcp 1040 ------- 1 0.0 4.0 26 96
+ 0.948 2 3 cbr 1000 ------- 0 2.0 3.0 56 102
- 0.948752 2 3 tcp 1040 ------- 1 0.0 4.0 26 96
r 0.948784 0 2 tcp 1040 ------- 1 0.0 4.0 27 97
+ 0.948784 2 3 tcp 1040 ------- 1 0.0 4.0 27 97
- 0.949584 2 3 cbr 1000 ------- 0 2.0 3.0 56 102
r 0.949616 0 2 tcp 1040 ------- 1 0.0 4.0 28 98
+ 0.949616 2 3 tcp 1040 ------- 1 0.0 4.0 28 98
- 0.950384 2 3 tcp 1040 ------- 1 0.0 4.0 27 97
r 0.950448 0 2 tcp 1040 ------- 1 0.0 4.0 29 99
+ 0.950448 2 3 tcp 1040 ------- 1 0.0 4.0 29 99
- 0.951216 2 3 tcp 1040 ------- 1 0.0 4.0 28 98
r 0.95128 0 2 tcp 1040 ------- 1 0.0 4.0 30 100
+ 0.95128 2 3 tcp 1040 ------- 1 0.0 4.0 30 100
- 0.952048 2 3 tcp 1040 ------- 1 0.0 4.0 29 99
r 0.9528 2 3 cbr 1000 ------- 0 2.0 3.0 54 94
- 0.95288 2 3 tcp 1040 ------- 1 0.0 4.0 30 100
+ 0.956 2 3 cbr 1000 ------- 0 2.0 3.0 57 103
- 0.956 2 3 cbr 1000 ------- 0 2.0 3.0 57 103
r 0.959632 2 3 tcp 1040 ------- 1 0.0 4.0 15 84
+ 0.959632 3 4 tcp 1040 ------- 1 0.0 4.0 15 84
- 0.959632 3 4 tcp 1040 ------- 1 0.0 4.0 15 84
r 0.960464 2 3 tcp 1040 ------- 1 0.0 4.0 16 85
+ 0.960464 3 4 tcp 1040 ------- 1 0.0 4.0 16 85
- 0.960464 3 4 tcp 1040 ------- 1 0.0 4.0 16 85
r 0.961264 2 3 cbr 1000 ------- 0 2.0 3.0 55 101
r 0.962096 2 3 tcp 1040 ------- 1 0.0 4.0 17 86
+ 0.962096 3 4 tcp 1040 ------- 1 0.0 4.0 17 86
- 0.962096 3 4 tcp 1040 ------- 1 0.0 4.0 17 86
r 0.962928 2 3 tcp 1040 ------- 1 0.0 4.0 18 87
+ 0.962928 3 4 tcp 1040 ------- 1 0.0 4.0 18 87
- 0.962928 3 4 tcp 1040 ------- 1 0.0 4.0 18 87
r 0.96376 2 3 tcp 1040 ------- 1 0.0 4.0 19 88
+ 0.96376 3 4 tcp 1040 ------- 1 0.0 4.0 19 88
- 0.96376 3 4 tcp 1040 ------- 1 0.0 4.0 19 88
+ 0.964 2 3 cbr 1000 ------- 0 2.0 3.0 58 104
- 0.964 2 3 cbr 1000 ------- 0 2.0 3.0 58 104
r 0.964592 2 3 tcp 1040 ------- 1 0.0 4.0 20 89
+ 0.964592 3 4 tcp 1040 ------- 1 0.0 4.0 20 89
- 0.964592 3 4 tcp 1040 ------- 1 0.0 4.0 20 89
r 0.965424 2 3 tcp 1040 ------- 1 0.0 4.0 21 90
+ 0.965424 3 4 tcp 1040 ------- 1 0.0 4.0 21 90
- 0.965424 3 4 tcp 1040 ------- 1 0.0 4.0 21 90
r 0.966256 2 3 tcp 1040 ------- 1 0.0 4.0 22 91
+ 0.966256 3 4 tcp 1040 ------- 1 0.0 4.0 22 91
- 0.966256 3 4 tcp 1040 ------- 1 0.0 4.0 22 91
r 0.967088 2 3 tcp 1040 ------- 1 0.0 4.0 23 92
+ 0.967088 3 4 tcp 1040 ------- 1 0.0 4.0 23 92
- 0.967088 3 4 tcp 1040 ------- 1 0.0 4.0 23 92
r 0.96792 2 3 tcp 1040 ------- 1 0.0 4.0 24 93
+ 0.96792 3 4 tcp 1040 ------- 1 0.0 4.0 24 93
- 0.96792 3 4 tcp 1040 ------- 1 0.0 4.0 24 93
r 0.968752 2 3 tcp 1040 ------- 1 0.0 4.0 25 95
+ 0.968752 3 4 tcp 1040 ------- 1 0.0 4.0 25 95
- 0.968752 3 4 tcp 1040 ------- 1 0.0 4.0 25 95
r 0.969584 2 3 tcp 1040 ------- 1 0.0 4.0 26 96
+ 0.969584 3 4 tcp 1040 ------- 1 0.0 4.0 26 96
- 0.969584 3 4 tcp 1040 ------- 1 0.0 4.0 26 96
r 0.970384 2 3 cbr 1000 ------- 0 2.0 3.0 56 102
r 0.970464 3 4 tcp 1040 ------- 1 0.0 4.0 15 84
+ 0.970464 4 3 ack 40 ------- 1 4.0 0.0 15 105
- 0.970464 4 3 ack 40 ------- 1 4.0 0.0 15 105
r 0.971216 2 3 tcp 1040 ------- 1 0.0 4.0 27 97
+ 0.971216 3 4 tcp 1040 ------- 1 0.0 4.0 27 97
- 0.971216 3 4 tcp 1040 ------- 1 0.0 4.0 27 97
r 0.971296 3 4 tcp 1040 ------- 1 0.0 4.0 16 85
+ 0.971296 4 3 ack 40 ------- 1 4.0 0.0 16 106
- 0.971296 4 3 ack 40 ------- 1 4.0 0.0 16 106
+ 0.972 2 3 cbr 1000 ------- 0 2.0 3.0 59 107
- 0.972 2 3 cbr 1000 ------- 0 2.0 3.0 59 107
r 0.972048 2 3 tcp 1040 ------- 1 0.0 4.0 28 98
+ 0.972048 3 4 tcp 1040 ------- 1 0.0 4.0 28 98
- 0.972048 3 4 tcp 1040 ------- 1 0.0 4.0 28 98
r 0.97288 2 3 tcp 1040 ------- 1 0.0 4.0 29 99
+ 0.97288 3 4 tcp 1040 ------- 1 0.0 4.0 29 99
- 0.97288 3 4 tcp 1040 ------- 1 0.0 4.0 29 99
r 0.972928 3 4 tcp 1040 ------- 1 0.0 4.0 17 86
+ 0.972928 4 3 ack 40 ------- 1 4.0 0.0 17 108
- 0.972928 4 3 ack 40 ------- 1 4.0 0.0 17 108
r 0.973712 2 3 tcp 1040 ------- 1 0.0 4.0 30 100
+ 0.973712 3 4 tcp 1040 ------- 1 0.0 4.0 30 100
- 0.973712 3 4 tcp 1040 ------- 1 0.0 4.0 30 100
r 0.97376 3 4 tcp 1040 ------- 1 0.0 4.0 18 87
+ 0.97376 4 3 ack 40 ------- 1 4.0 0.0 18 109
- 0.97376 4 3 ack 40 ------- 1 4.0 0.0 18 109
r 0.974592 3 4 tcp 1040 ------- 1 0.0 4.0 19 88
+ 0.974592 4 3 ack 40 ------- 1 4.0 0.0 19 110
- 0.974592 4 3 ack 40 ------- 1 4.0 0.0 19 110
r 0.975424 3 4 tcp 1040 ------- 1 0.0 4.0 20 89
+ 0.975424 4 3 ack 40 ------- 1 4.0 0.0 20 111
- 0.975424 4 3 ack 40 ------- 1 4.0 0.0 20 111
r 0.976256 3 4 tcp 1040 ------- 1 0.0 4.0 21 90
+ 0.976256 4 3 ack 40 ------- 1 4.0 0.0 21 112
- 0.976256 4 3 ack 40 ------- 1 4.0 0.0 21 112
r 0.9768 2 3 cbr 1000 ------- 0 2.0 3.0 57 103
r 0.977088 3 4 tcp 1040 ------- 1 0.0 4.0 22 91
+ 0.977088 4 3 ack 40 ------- 1 4.0 0.0 22 113
- 0.977088 4 3 ack 40 ------- 1 4.0 0.0 22 113
r 0.97792 3 4 tcp 1040 ------- 1 0.0 4.0 23 92
+ 0.97792 4 3 ack 40 ------- 1 4.0 0.0 23 114
- 0.97792 4 3 ack 40 ------- 1 4.0 0.0 23 114
r 0.978752 3 4 tcp 1040 ------- 1 0.0 4.0 24 93
+ 0.978752 4 3 ack 40 ------- 1 4.0 0.0 24 115
- 0.978752 4 3 ack 40 ------- 1 4.0 0.0 24 115
r 0.979584 3 4 tcp 1040 ------- 1 0.0 4.0 25 95
+ 0.979584 4 3 ack 40 ------- 1 4.0 0.0 25 116
- 0.979584 4 3 ack 40 ------- 1 4.0 0.0 25 116
+ 0.98 2 3 cbr 1000 ------- 0 2.0 3.0 60 117
- 0.98 2 3 cbr 1000 ------- 0 2.0 3.0 60 117
r 0.980416 3 4 tcp 1040 ------- 1 0.0 4.0 26 96
+ 0.980416 4 3 ack 40 ------- 1 4.0 0.0 26 118
- 0.980416 4 3 ack 40 ------- 1 4.0 0.0 26 118
r 0.980496 4 3 ack 40 ------- 1 4.0 0.0 15 105
+ 0.980496 3 2 ack 40 ------- 1 4.0 0.0 15 105
- 0.980496 3 2 ack 40 ------- 1 4.0 0.0 15 105
r 0.981328 4 3 ack 40 ------- 1 4.0 0.0 16 106
+ 0.981328 3 2 ack 40 ------- 1 4.0 0.0 16 106
- 0.981328 3 2 ack 40 ------- 1 4.0 0.0 16 106
r 0.982048 3 4 tcp 1040 ------- 1 0.0 4.0 27 97
+ 0.982048 4 3 ack 40 ------- 1 4.0 0.0 27 119
- 0.982048 4 3 ack 40 ------- 1 4.0 0.0 27 119
r 0.98288 3 4 tcp 1040 ------- 1 0.0 4.0 28 98
+ 0.98288 4 3 ack 40 ------- 1 4.0 0.0 28 120
- 0.98288 4 3 ack 40 ------- 1 4.0 0.0 28 120
r 0.98296 4 3 ack 40 ------- 1 4.0 0.0 17 108
+ 0.98296 3 2 ack 40 ------- 1 4.0 0.0 17 108
- 0.98296 3 2 ack 40 ------- 1 4.0 0.0 17 108
r 0.983712 3 4 tcp 1040 ------- 1 0.0 4.0 29 99
+ 0.983712 4 3 ack 40 ------- 1 4.0 0.0 29 121
- 0.983712 4 3 ack 40 ------- 1 4.0 0.0 29 121
r 0.983792 4 3 ack 40 ------- 1 4.0 0.0 18 109
+ 0.983792 3 2 ack 40 ------- 1 4.0 0.0 18 109
- 0.983792 3 2 ack 40 ------- 1 4.0 0.0 18 109
r 0.984544 3 4 tcp 1040 ------- 1 0.0 4.0 30 100
+ 0.984544 4 3 ack 40 ------- 1 4.0 0.0 30 122
- 0.984544 4 3 ack 40 ------- 1 4.0 0.0 30 122
r 0.984624 4 3 ack 40 ------- 1 4.0 0.0 19 110
+ 0.984624 3 2 ack 40 ------- 1 4.0 0.0 19 110
- 0.984624 3 2 ack 40 ------- 1 4.0 0.0 19 110
r 0.9848 2 3 cbr 1000 ------- 0 2.0 3.0 58 104
r 0.985456 4 3 ack 40 ------- 1 4.0 0.0 20 111
+ 0.985456 3 2 ack 40 ------- 1 4.0 0.0 20 111
- 0.985456 3 2 ack 40 ------- 1 4.0 0.0 20 111
r 0.986288 4 3 ack 40 ------- 1 4.0 0.0 21 112
+ 0.986288 3 2 ack 40 ------- 1 4.0 0.0 21 112
- 0.986288 3 2 ack 40 ------- 1 4.0 0.0 21 112
r 0.98712 4 3 ack 40 ------- 1 4.0 0.0 22 113