+ 0.5 2 3 cbr 1000 ------- 0 2.0 3.0 0 0
- 0.5 2 3 cbr 1000 ------- 0 2.0 3.0 0 0
+ 0.504 2 3 cbr 1000 ------- 0 2.0 3.0 1 1
- 0.504 2 3 cbr 1000 ------- 0 2.0 3.0 1 1
+ 0.508 2 3 cbr 1000 ------- 0 2.0 3.0 2 2
- 0.508 2 3 cbr 1000 ------- 0 2.0 3.0 2 2
+ 0.512 2 3 cbr 1000 ------- 0 2.0 3.0 3 3
- 0.512 2 3 cbr 1000 ------- 0 2.0 3.0 3 3
+ 0.516 2 3 cbr 1000 ------- 0 2.0 3.0 4 4
- 0.516 2 3 cbr 1000 ------- 0 2.0 3.0 4 4
+ 0.52 2 3 cbr 1000 ------- 0 2.0 3.0 5 5
- 0.52 2 3 cbr 1000 ------- 0 2.0 3.0 5 5
r 0.5208 2 3 cbr 1000 ------- 0 2.0 3.0 0 0
+ 0.524 2 3 cbr 1000 ------- 0 2.0 3.0 6 6
- 0.524 2 3 cbr 1000 ------- 0 2.0 3.0 6 6
r 0.5248 2 3 cbr 1000 ------- 0 2.0 3.0 1 1
+ 0.528 2 3 cbr 1000 ------- 0 2.0 3.0 7 7
- 0.528 2 3 cbr 1000 ------- 0 2.0 3.0 7 7
r 0.5288 2 3 cbr 1000 ------- 0 2.0 3.0 2 2
+ 0.532 2 3 cbr 1000 ------- 0 2.0 3.0 8 8
- 0.532 2 3 cbr 1000 ------- 0 2.0 3.0 8 8
r 0.5328 2 3 cbr 1000 ------- 0 2.0 3.0 3 3
+ 0.536 2 3 cbr 1000 ------- 0 2.0 3.0 9 9
- 0.536 2 3 cbr 1000 ------- 0 2.0 3.0 9 9
r 0.5368 2 3 cbr 1000 ------- 0 2.0 3.0 4 4
+ 0.54 2 3 cbr 1000 ------- 0 2.0 3.0 10 10
- 0.54 2 3 cbr 1000 ------- 0 2.0 3.0 10 10
r 0.5408 2 3 cbr 1000 ------- 0 2.0 3.0 5 5
+ 0.544 2 3 cbr 1000 ------- 0 2.0 3.0 11 11
- 0.544 2 3 cbr 1000 ------- 0 2.0 3.0 11 11
r 0.5448 2 3 cbr 1000 ------- 0 2.0 3.0 6 6
+ 0.548 2 3 cbr 1000 ------- 0 2.0 3.0 12 12
- 0.548 2 3 cbr 1000 ------- 0 2.0 3.0 12 12
r 0.5488 2 3 cbr 1000 ------- 0 2.0 3.0 7 7
+ 0.552 2 3 cbr 1000 ------- 0 2.0 3.0 13 13
- 0.552 2 3 cbr 1000 ------- 0 2.0 3.0 13 13
r 0.5528 2 3 cbr 1000 ------- 0 2.0 3.0 8 8
+ 0.556 2 3 cbr 1000 ------- 0 2.0 3.0 14 14
- 0.556 2 3 cbr 1000 ------- 0 2.0 3.0 14 14
r 0.5568 2 3 cbr 1000 ------- 0 2.0 3.0 9 9
+ 0.56 2 3 cbr 1000 ------- 0 2.0 3.0 15 15
- 0.56 2 3 cbr 1000 ------- 0 2.0 3.0 15 15
r 0.5608 2 3 cbr 1000 ------- 0 2.0 3.0 10 10
+ 0.564 2 3 cbr 1000 ------- 0 2.0 3.0 16 16
- 0.564 2 3 cbr 1000 ------- 0 2.0 3.0 16 16
r 0.5648 2 3 cbr 1000 ------- 0 2.0 3.0 11 11
+ 0.568 2 3 cbr 1000 ------- 0 2.0 3.0 17 17
- 0.568 2 3 cbr 1000 ------- 0 2.0 3.0 17 17
r 0.5688 2 3 cbr 1000 ------- 0 2.0 3.0 12 12
+ 0.572 2 3 cbr 1000 ------- 0 2.0 3.0 18 18
- 0.572 2 3 cbr 1000 ------- 0 2.0 3.0 18 18
r 0.5728 2 3 cbr 1000 ------- 0 2.0 3.0 13 13
+ 0.576 2 3 cbr 1000 ------- 0 2.0 3.0 19 19
- 0.576 2 3 cbr 1000 ------- 0 2.0 3.0 19 19
r 0.5768 2 3 cbr 1000 ------- 0 2.0 3.0 14 14
+ 0.58 2 3 cbr 1000 ------- 0 2.0 3.0 20 20
- 0.58 2 3 cbr 1000 ------- 0 2.0 3.0 20 20
r 0.5808 2 3 cbr 1000 ------- 0 2.0 3.0 15 15
+ 0.584 2 3 cbr 1000 ------- 0 2.0 3.0 21 21
- 0.584 2 3 cbr 1000 ------- 0 2.0 3.0 21 21
r 0.5848 2 3 cbr 1000 ------- 0 2.0 3.0 16 16
+ 0.588 2 3 cbr 1000 ------- 0 2.0 3.0 22 22
- 0.588 2 3 cbr 1000 ------- 0 2.0 3.0 22 22
r 0.5888 2 3 cbr 1000 ------- 0 2.0 3.0 17 17
+ 0.592 2 3 cbr 1000 ------- 0 2.0 3.0 23 23
- 0.592 2 3 cbr 1000 ------- 0 2.0 3.0 23 23
r 0.5928 2 3 cbr 1000 ------- 0 2.0 3.0 18 18
+ 0.596 2 3 cbr 1000 ------- 0 2.0 3.0 24 24
- 0.596 2 3 cbr 1000 ------- 0 2.0 3.0 24 24
r 0.5968 2 3 cbr 1000 ------- 0 2.0 3.0 19 19
+ 0.6 0 2 tcp 40 ------- 1 0.0 4.0 0 25
- 0.6 0 2 tcp 40 ------- 1 0.0 4.0 0 25
+ 0.6 2 3 cbr 1000 ------- 0 2.0 3.0 25 26
- 0.6 2 3 cbr 1000 ------- 0 2.0 3.0 25 26
r 0.6008 2 3 cbr 1000 ------- 0 2.0 3.0 20 20
+ 0.604 2 3 cbr 1000 ------- 0 2.0 3.0 26 27
- 0.604 2 3 cbr 1000 ------- 0 2.0 3.0 26 27
r 0.6048 2 3 cbr 1000 ------- 0 2.0 3.0 21 21
+ 0.608 2 3 cbr 1000 ------- 0 2.0 3.0 27 28
- 0.608 2 3 cbr 1000 ------- 0 2.0 3.0 27 28
r 0.6088 2 3 cbr 1000 ------- 0 2.0 3.0 22 22
r 0.610032 0 2 tcp 40 ------- 1 0.0 4.0 0 25
+ 0.610032 2 3 tcp 40 ------- 1 0.0 4.0 0 25
- 0.610032 2 3 tcp 40 ------- 1 0.0 4.0 0 25
+ 0.612 2 3 cbr 1000 ------- 0 2.0 3.0 28 29
- 0.612 2 3 cbr 1000 ------- 0 2.0 3.0 28 29
r 0.6128 2 3 cbr 1000 ------- 0 2.0 3.0 23 23
+ 0.616 2 3 cbr 1000 ------- 0 2.0 3.0 29 30
- 0.616 2 3 cbr 1000 ------- 0 2.0 3.0 29 30
r 0.6168 2 3 cbr 1000 ------- 0 2.0 3.0 24 24
+ 0.62 2 3 cbr 1000 ------- 0 2.0 3.0 30 31
- 0.62 2 3 cbr 1000 ------- 0 2.0 3.0 30 31
r 0.6208 2 3 cbr 1000 ------- 0 2.0 3.0 25 26
+ 0.624 2 3 cbr 1000 ------- 0 2.0 3.0 31 32
- 0.624 2 3 cbr 1000 ------- 0 2.0 3.0 31 32
r 0.6248 2 3 cbr 1000 ------- 0 2.0 3.0 26 27
+ 0.628 2 3 cbr 1000 ------- 0 2.0 3.0 32 33
- 0.628 2 3 cbr 1000 ------- 0 2.0 3.0 32 33
r 0.6288 2 3 cbr 1000 ------- 0 2.0 3.0 27 28
r 0.630064 2 3 tcp 40 ------- 1 0.0 4.0 0 25
+ 0.630064 3 4 tcp 40 ------- 1 0.0 4.0 0 25
- 0.630064 3 4 tcp 40 ------- 1 0.0 4.0 0 25
+ 0.632 2 3 cbr 1000 ------- 0 2.0 3.0 33 34
- 0.632 2 3 cbr 1000 ------- 0 2.0 3.0 33 34
r 0.6328 2 3 cbr 1000 ------- 0 2.0 3.0 28 29
+ 0.636 2 3 cbr 1000 ------- 0 2.0 3.0 34 35
- 0.636 2 3 cbr 1000 ------- 0 2.0 3.0 34 35
r 0.6368 2 3 cbr 1000 ------- 0 2.0 3.0 29 30
+ 0.64 2 3 cbr 1000 ------- 0 2.0 3.0 35 36
- 0.64 2 3 cbr 1000 ------- 0 2.0 3.0 35 36
r 0.640096 3 4 tcp 40 ------- 1 0.0 4.0 0 25
+ 0.640096 4 3 ack 40 ------- 1 4.0 0.0 0 37
- 0.640096 4 3 ack 40 ------- 1 4.0 0.0 0 37
r 0.6408 2 3 cbr 1000 ------- 0 2.0 3.0 30 31
+ 0.644 2 3 cbr 1000 ------- 0 2.0 3.0 36 38
- 0.644 2 3 cbr 1000 ------- 0 2.0 3.0 36 38
r 0.6448 2 3 cbr 1000 ------- 0 2.0 3.0 31 32
+ 0.648 2 3 cbr 1000 ------- 0 2.0 3.0 37 39
- 0.648 2 3 cbr 1000 ------- 0 2.0 3.0 37 39
r 0.6488 2 3 cbr 1000 ------- 0 2.0 3.0 32 33
r 0.650128 4 3 ack 40 ------- 1 4.0 0.0 0 37
+ 0.650128 3 2 ack 40 ------- 1 4.0 0.0 0 37
- 0.650128 3 2 ack 40 ------- 1 4.0 0.0 0 37
+ 0.652 2 3 cbr 1000 ------- 0 2.0 3.0 38 40
- 0.652 2 3 cbr 1000 ------- 0 2.0 3.0 38 40
r 0.6528 2 3 cbr 1000 ------- 0 2.0 3.0 33 34
+ 0.656 2 3 cbr 1000 ------- 0 2.0 3.0 39 41
- 0.656 2 3 cbr 1000 ------- 0 2.0 3.0 39 41
r 0.6568 2 3 cbr 1000 ------- 0 2.0 3.0 34 35
+ 0.66 2 3 cbr 1000 ------- 0 2.0 3.0 40 42
- 0.66 2 3 cbr 1000 ------- 0 2.0 3.0 40 42
r 0.6608 2 3 cbr 1000 ------- 0 2.0 3.0 35 36
+ 0.664 2 3 cbr 1000 ------- 0 2.0 3.0 41 43
- 0.664 2 3 cbr 1000 ------- 0 2.0 3.0 41 43
r 0.6648 2 3 cbr 1000 ------- 0 2.0 3.0 36 38
+ 0.668 2 3 cbr 1000 ------- 0 2.0 3.0 42 44
- 0.668 2 3 cbr 1000 ------- 0 2.0 3.0 42 44
r 0.6688 2 3 cbr 1000 ------- 0 2.0 3.0 37 39
r 0.67016 3 2 ack 40 ------- 1 4.0 0.0 0 37
+ 0.67016 2 0 ack 40 ------- 1 4.0 0.0 0 37
- 0.67016 2 0 ack 40 ------- 1 4.0 0.0 0 37
+ 0.672 2 3 cbr 1000 ------- 0 2.0 3.0 43 45
- 0.672 2 3 cbr 1000 ------- 0 2.0 3.0 43 45
r 0.6728 2 3 cbr 1000 ------- 0 2.0 3.0 38 40
+ 0.676 2 3 cbr 1000 ------- 0 2.0 3.0 44 46
- 0.676 2 3 cbr 1000 ------- 0 2.0 3.0 44 46
r 0.6768 2 3 cbr 1000 ------- 0 2.0 3.0 39 41
+ 0.68 2 3 cbr 1000 ------- 0 2.0 3.0 45 47
- 0.68 2 3 cbr 1000 ------- 0 2.0 3.0 45 47
r 0.680192 2 0 ack 40 ------- 1 4.0 0.0 0 37
+ 0.680192 0 2 tcp 1040 ------- 1 0.0 4.0 1 48
- 0.680192 0 2 tcp 1040 ------- 1 0.0 4.0 1 48
+ 0.680192 0 2 tcp 1040 ------- 1 0.0 4.0 2 49
r 0.6808 2 3 cbr 1000 ------- 0 2.0 3.0 40 42
- 0.681024 0 2 tcp 1040 ------- 1 0.0 4.0 2 49
+ 0.684 2 3 cbr 1000 ------- 0 2.0 3.0 46 50
- 0.684 2 3 cbr 1000 ------- 0 2.0 3.0 46 50
r 0.6848 2 3 cbr 1000 ------- 0 2.0 3.0 41 43
+ 0.688 2 3 cbr 1000 ------- 0 2.0 3.0 47 51
- 0.688 2 3 cbr 1000 ------- 0 2.0 3.0 47 51
r 0.6888 2 3 cbr 1000 ------- 0 2.0 3.0 42 44
r 0.691024 0 2 tcp 1040 ------- 1 0.0 4.0 1 48
+ 0.691024 2 3 tcp 1040 ------- 1 0.0 4.0 1 48
- 0.691024 2 3 tcp 1040 ------- 1 0.0 4.0 1 48
r 0.691856 0 2 tcp 1040 ------- 1 0.0 4.0 2 49
+ 0.691856 2 3 tcp 1040 ------- 1 0.0 4.0 2 49
- 0.691856 2 3 tcp 1040 ------- 1 0.0 4.0 2 49
+ 0.692 2 3 cbr 1000 ------- 0 2.0 3.0 48 52
- 0.692688 2 3 cbr 1000 ------- 0 2.0 3.0 48 52
r 0.6928 2 3 cbr 1000 ------- 0 2.0 3.0 43 45
+ 0.696 2 3 cbr 1000 ------- 0 2.0 3.0 49 53
- 0.696 2 3 cbr 1000 ------- 0 2.0 3.0 49 53
r 0.6968 2 3 cbr 1000 ------- 0 2.0 3.0 44 46
+ 0.7 2 3 cbr 1000 ------- 0 2.0 3.0 50 54
- 0.7 2 3 cbr 1000 ------- 0 2.0 3.0 50 54
r 0.7008 2 3 cbr 1000 ------- 0 2.0 3.0 45 47
+ 0.704 2 3 cbr 1000 ------- 0 2.0 3.0 51 55
- 0.704 2 3 cbr 1000 ------- 0 2.0 3.0 51 55
r 0.7048 2 3 cbr 1000 ------- 0 2.0 3.0 46 50
+ 0.708 2 3 cbr 1000 ------- 0 2.0 3.0 52 56
- 0.708 2 3 cbr 1000 ------- 0 2.0 3.0 52 56
r 0.7088 2 3 cbr 1000 ------- 0 2.0 3.0 47 51
r 0.711856 2 3 tcp 1040 ------- 1 0.0 4.0 1 48
+ 0.711856 3 4 tcp 1040 ------- 1 0.0 4.0 1 48
- 0.711856 3 4 tcp 1040 ------- 1 0.0 4.0 1 48
+ 0.712 2 3 cbr 1000 ------- 0 2.0 3.0 53 57
- 0.712 2 3 cbr 1000 ------- 0 2.0 3.0 53 57
r 0.712688 2 3 tcp 1040 ------- 1 0.0 4.0 2 49
+ 0.712688 3 4 tcp 1040 ------- 1 0.0 4.0 2 49
- 0.712688 3 4 tcp 1040 ------- 1 0.0 4.0 2 49
r 0.713488 2 3 cbr 1000 ------- 0 2.0 3.0 48 52
+ 0.716 2 3 cbr 1000 ------- 0 2.0 3.0 54 58
- 0.716 2 3 cbr 1000 ------- 0 2.0 3.0 54 58
r 0.7168 2 3 cbr 1000 ------- 0 2.0 3.0 49 53
+ 0.72 2 3 cbr 1000 ------- 0 2.0 3.0 55 59
- 0.72 2 3 cbr 1000 ------- 0 2.0 3.0 55 59
r 0.7208 2 3 cbr 1000 ------- 0 2.0 3.0 50 54
r 0.722688 3 4 tcp 1040 ------- 1 0.0 4.0 1 48
+ 0.722688 4 3 ack 40 ------- 1 4.0 0.0 1 60
- 0.722688 4 3 ack 40 ------- 1 4.0 0.0 1 60
r 0.72352 3 4 tcp 1040 ------- 1 0.0 4.0 2 49
+ 0.72352 4 3 ack 40 ------- 1 4.0 0.0 2 61
- 0.72352 4 3 ack 40 ------- 1 4.0 0.0 2 61
+ 0.724 2 3 cbr 1000 ------- 0 2.0 3.0 56 62
- 0.724 2 3 cbr 1000 ------- 0 2.0 3.0 56 62
r 0.7248 2 3 cbr 1000 ------- 0 2.0 3.0 51 55
+ 0.728 2 3 cbr 1000 ------- 0 2.0 3.0 57 63
- 0.728 2 3 cbr 1000 ------- 0 2.0 3.0 57 63
r 0.7288 2 3 cbr 1000 ------- 0 2.0 3.0 52 56
+ 0.732 2 3 cbr 1000 ------- 0 2.0 3.0 58 64
- 0.732 2 3 cbr 1000 ------- 0 2.0 3.0 58 64
r 0.73272 4 3 ack 40 ------- 1 4.0 0.0 1 60
+ 0.73272 3 2 ack 40 ------- 1 4.0 0.0 1 60
- 0.73272 3 2 ack 40 ------- 1 4.0 0.0 1 60
r 0.7328 2 3 cbr 1000 ------- 0 2.0 3.0 53 57
r 0.733552 4 3 ack 40 ------- 1 4.0 0.0 2 61
+ 0.733552 3 2 ack 40 ------- 1 4.0 0.0 2 61
- 0.733552 3 2 ack 40 ------- 1 4.0 0.0 2 61
+ 0.736 2 3 cbr 1000 ------- 0 2.0 3.0 59 65
- 0.736 2 3 cbr 1000 ------- 0 2.0 3.0 59 65
r 0.7368 2 3 cbr 1000 ------- 0 2.0 3.0 54 58
+ 0.74 2 3 cbr 1000 ------- 0 2.0 3.0 60 66
- 0.74 2 3 cbr 1000 ------- 0 2.0 3.0 60 66
r 0.7408 2 3 cbr 1000 ------- 0 2.0 3.0 55 59
+ 0.744 2 3 cbr 1000 ------- 0 2.0 3.0 61 67
- 0.744 2 3 cbr 1000 ------- 0 2.0 3.0 61 67
r 0.7448 2 3 cbr 1000 ------- 0 2.0 3.0 56 62
+ 0.748 2 3 cbr 1000 ------- 0 2.0 3.0 62 68
- 0.748 2 3 cbr 1000 ------- 0 2.0 3.0 62 68
r 0.7488 2 3 cbr 1000 ------- 0 2.0 3.0 57 63
+ 0.752 2 3 cbr 1000 ------- 0 2.0 3.0 63 69
- 0.752 2 3 cbr 1000 ------- 0 2.0 3.0 63 69
r 0.752752 3 2 ack 40 ------- 1 4.0 0.0 1 60
+ 0.752752 2 0 ack 40 ------- 1 4.0 0.0 1 60
- 0.752752 2 0 ack 40 ------- 1 4.0 0.0 1 60
r 0.7528 2 3 cbr 1000 ------- 0 2.0 3.0 58 64
r 0.753584 3 2 ack 40 ------- 1 4.0 0.0 2 61
+ 0.753584 2 0 ack 40 ------- 1 4.0 0.0 2 61
- 0.753584 2 0 ack 40 ------- 1 4.0 0.0 2 61
+ 0.756 2 3 cbr 1000 ------- 0 2.0 3.0 64 70
- 0.756 2 3 cbr 1000 ------- 0 2.0 3.0 64 70
r 0.7568 2 3 cbr 1000 ------- 0 2.0 3.0 59 65
+ 0.76 2 3 cbr 1000 ------- 0 2.0 3.0 65 71
- 0.76 2 3 cbr 1000 ------- 0 2.0 3.0 65 71
r 0.7608 2 3 cbr 1000 ------- 0 2.0 3.0 60 66
r 0.762784 2 0 ack 40 ------- 1 4.0 0.0 1 60
+ 0.762784 0 2 tcp 1040 ------- 1 0.0 4.0 3 72
- 0.762784 0 2 tcp 1040 ------- 1 0.0 4.0 3 72
+ 0.762784 0 2 tcp 1040 ------- 1 0.0 4.0 4 73
r 0.763616 2 0 ack 40 ------- 1 4.0 0.0 2 61
+ 0.763616 0 2 tcp 1040 ------- 1 0.0 4.0 5 74
+ 0.763616 0 2 tcp 1040 ------- 1 0.0 4.0 6 75
- 0.763616 0 2 tcp 1040 ------- 1 0.0 4.0 4 73
+ 0.764 2 3 cbr 1000 ------- 0 2.0 3.0 66 76
- 0.764 2 3 cbr 1000 ------- 0 2.0 3.0 66 76
- 0.764448 0 2 tcp 1040 ------- 1 0.0 4.0 5 74
r 0.7648 2 3 cbr 1000 ------- 0 2.0 3.0 61 67
- 0.76528 0 2 tcp 1040 ------- 1 0.0 4.0 6 75
+ 0.768 2 3 cbr 1000 ------- 0 2.0 3.0 67 77
- 0.768 2 3 cbr 1000 ------- 0 2.0 3.0 67 77
r 0.7688 2 3 cbr 1000 ------- 0 2.0 3.0 62 68
+ 0.772 2 3 cbr 1000 ------- 0 2.0 3.0 68 78
- 0.772 2 3 cbr 1000 ------- 0 2.0 3.0 68 78
r 0.7728 2 3 cbr 1000 ------- 0 2.0 3.0 63 69
r 0.773616 0 2 tcp 1040 ------- 1 0.0 4.0 3 72
+ 0.773616 2 3 tcp 1040 ------- 1 0.0 4.0 3 72
- 0.773616 2 3 tcp 1040 ------- 1 0.0 4.0 3 72
r 0.774448 0 2 tcp 1040 ------- 1 0.0 4.0 4 73
+ 0.774448 2 3 tcp 1040 ------- 1 0.0 4.0 4 73
- 0.774448 2 3 tcp 1040 ------- 1 0.0 4.0 4 73
r 0.77528 0 2 tcp 1040 ------- 1 0.0 4.0 5 74
+ 0.77528 2 3 tcp 1040 ------- 1 0.0 4.0 5 74
- 0.77528 2 3 tcp 1040 ------- 1 0.0 4.0 5 74
+ 0.776 2 3 cbr 1000 ------- 0 2.0 3.0 69 79
r 0.776112 0 2 tcp 1040 ------- 1 0.0 4.0 6 75
+ 0.776112 2 3 tcp 1040 ------- 1 0.0 4.0 6 75
- 0.776112 2 3 cbr 1000 ------- 0 2.0 3.0 69 79
r 0.7768 2 3 cbr 1000 ------- 0 2.0 3.0 64 70
- 0.776912 2 3 tcp 1040 ------- 1 0.0 4.0 6 75
+ 0.78 2 3 cbr 1000 ------- 0 2.0 3.0 70 80
- 0.78 2 3 cbr 1000 ------- 0 2.0 3.0 70 80
r 0.7808 2 3 cbr 1000 ------- 0 2.0 3.0 65 71
+ 0.784 2 3 cbr 1000 ------- 0 2.0 3.0 71 81
- 0.784 2 3 cbr 1000 ------- 0 2.0 3.0 71 81
r 0.7848 2 3 cbr 1000 ------- 0 2.0 3.0 66 76
+ 0.788 2 3 cbr 1000 ------- 0 2.0 3.0 72 82
- 0.788 2 3 cbr 1000 ------- 0 2.0 3.0 72 82
r 0.7888 2 3 cbr 1000 ------- 0 2.0 3.0 67 77
+ 0.792 2 3 cbr 1000 ------- 0 2.0 3.0 73 83
- 0.792 2 3 cbr 1000 ------- 0 2.0 3.0 73 83
r 0.7928 2 3 cbr 1000 ------- 0 2.0 3.0 68 78
r 0.794448 2 3 tcp 1040 ------- 1 0.0 4.0 3 72
+ 0.794448 3 4 tcp 1040 ------- 1 0.0 4.0 3 72
- 0.794448 3 4 tcp 1040 ------- 1 0.0 4.0 3 72
r 0.79528 2 3 tcp 1040 ------- 1 0.0 4.0 4 73
+ 0.79528 3 4 tcp 1040 ------- 1 0.0 4.0 4 73
- 0.79528 3 4 tcp 1040 ------- 1 0.0 4.0 4 73
+ 0.796 2 3 cbr 1000 ------- 0 2.0 3.0 74 84
- 0.796 2 3 cbr 1000 ------- 0 2.0 3.0 74 84
r 0.796112 2 3 tcp 1040 ------- 1 0.0 4.0 5 74
+ 0.796112 3 4 tcp 1040 ------- 1 0.0 4.0 5 74
- 0.796112 3 4 tcp 1040 ------- 1 0.0 4.0 5 74
r 0.796912 2 3 cbr 1000 ------- 0 2.0 3.0 69 79
r 0.797744 2 3 tcp 1040 ------- 1 0.0 4.0 6 75
+ 0.797744 3 4 tcp 1040 ------- 1 0.0 4.0 6 75
- 0.797744 3 4 tcp 1040 ------- 1 0.0 4.0 6 75
+ 0.8 2 3 cbr 1000 ------- 0 2.0 3.0 75 85
- 0.8 2 3 cbr 1000 ------- 0 2.0 3.0 75 85
r 0.8008 2 3 cbr 1000 ------- 0 2.0 3.0 70 80
+ 0.804 2 3 cbr 1000 ------- 0 2.0 3.0 76 86
- 0.804 2 3 cbr 1000 ------- 0 2.0 3.0 76 86
r 0.8048 2 3 cbr 1000 ------- 0 2.0 3.0 71 81
r 0.80528 3 4 tcp 1040 ------- 1 0.0 4.0 3 72
+ 0.80528 4 3 ack 40 ------- 1 4.0 0.0 3 87
- 0.80528 4 3 ack 40 ------- 1 4.0 0.0 3 87
r 0.806112 3 4 tcp 1040 ------- 1 0.0 4.0 4 73
+ 0.806112 4 3 ack 40 ------- 1 4.0 0.0 4 88
- 0.806112 4 3 ack 40 ------- 1 4.0 0.0 4 88
r 0.806944 3 4 tcp 1040 ------- 1 0.0 4.0 5 74
+ 0.806944 4 3 ack 40 ------- 1 4.0 0.0 5 89
- 0.806944 4 3 ack 40 ------- 1 4.0 0.0 5 89
+ 0.808 2 3 cbr 1000 ------- 0 2.0 3.0 77 90
- 0.808 2 3 cbr 1000 ------- 0 2.0 3.0 77 90
r 0.808576 3 4 tcp 1040 ------- 1 0.0 4.0 6 75
+ 0.808576 4 3 ack 40 ------- 1 4.0 0.0 6 91
- 0.808576 4 3 ack 40 ------- 1 4.0 0.0 6 91
r 0.8088 2 3 cbr 1000 ------- 0 2.0 3.0 72 82
+ 0.812 2 3 cbr 1000 ------- 0 2.0 3.0 78 92
- 0.812 2 3 cbr 1000 ------- 0 2.0 3.0 78 92
r 0.8128 2 3 cbr 1000 ------- 0 2.0 3.0 73 83
r 0.815312 4 3 ack 40 ------- 1 4.0 0.0 3 87
+ 0.815312 3 2 ack 40 ------- 1 4.0 0.0 3 87
- 0.815312 3 2 ack 40 ------- 1 4.0 0.0 3 87
+ 0.816 2 3 cbr 1000 ------- 0 2.0 3.0 79 93
- 0.816 2 3 cbr 1000 ------- 0 2.0 3.0 79 93
r 0.816144 4 3 ack 40 ------- 1 4.0 0.0 4 88
+ 0.816144 3 2 ack 40 ------- 1 4.0 0.0 4 88
- 0.816144 3 2 ack 40 ------- 1 4.0 0.0 4 88
r 0.8168 2 3 cbr 1000 ------- 0 2.0 3.0 74 84
r 0.816976 4 3 ack 40 ------- 1 4.0 0.0 5 89
+ 0.816976 3 2 ack 40 ------- 1 4.0 0.0 5 89
- 0.816976 3 2 ack 40 ------- 1 4.0 0.0 5 89
r 0.818608 4 3 ack 40 ------- 1 4.0 0.0 6 91
+ 0.818608 3 2 ack 40 ------- 1 4.0 0.0 6 91
- 0.818608 3 2 ack 40 ------- 1 4.0 0.0 6 91
+ 0.82 2 3 cbr 1000 ------- 0 2.0 3.0 80 94
- 0.82 2 3 cbr 1000 ------- 0 2.0 3.0 80 94
r 0.8208 2 3 cbr 1000 ------- 0 2.0 3.0 75 85
+ 0.824 2 3 cbr 1000 ------- 0 2.0 3.0 81 95
- 0.824 2 3 cbr 1000 ------- 0 2.0 3.0 81 95
r 0.8248 2 3 cbr 1000 ------- 0 2.0 3.0 76 86
+ 0.828 2 3 cbr 1000 ------- 0 2.0 3.0 82 96
- 0.828 2 3 cbr 1000 ------- 0 2.0 3.0 82 96
r 0.8288 2 3 cbr 1000 ------- 0 2.0 3.0 77 90
+ 0.832 2 3 cbr 1000 ------- 0 2.0 3.0 83 97
- 0.832 2 3 cbr 1000 ------- 0 2.0 3.0 83 97
r 0.8328 2 3 cbr 1000 ------- 0 2.0 3.0 78 92
r 0.835344 3 2 ack 40 ------- 1 4.0 0.0 3 87
+ 0.835344 2 0 ack 40 ------- 1 4.0 0.0 3 87
- 0.835344 2 0 ack 40 ------- 1 4.0 0.0 3 87
+ 0.836 2 3 cbr 1000 ------- 0 2.0 3.0 84 98
- 0.836 2 3 cbr 1000 ------- 0 2.0 3.0 84 98
r 0.836176 3 2 ack 40 ------- 1 4.0 0.0 4 88
+ 0.836176 2 0 ack 40 ------- 1 4.0 0.0 4 88
- 0.836176 2 0 ack 40 ------- 1 4.0 0.0 4 88
r 0.8368 2 3 cbr 1000 ------- 0 2.0 3.0 79 93
r 0.837008 3 2 ack 40 ------- 1 4.0 0.0 5 89
+ 0.837008 2 0 ack 40 ------- 1 4.0 0.0 5 89
- 0.837008 2 0 ack 40 ------- 1 4.0 0.0 5 89
r 0.83864 3 2 ack 40 ------- 1 4.0 0.0 6 91
+ 0.83864 2 0 ack 40 ------- 1 4.0 0.0 6 91
- 0.83864 2 0 ack 40 ------- 1 4.0 0.0 6 91
+ 0.84 2 3 cbr 1000 ------- 0 2.0 3.0 85 99
- 0.84 2 3 cbr 1000 ------- 0 2.0 3.0 85 99
r 0.8408 2 3 cbr 1000 ------- 0 2.0 3.0 80 94
+ 0.844 2 3 cbr 1000 ------- 0 2.0 3.0 86 100
- 0.844 2 3 cbr 1000 ------- 0 2.0 3.0 86 100
r 0.8448 2 3 cbr 1000 ------- 0 2.0 3.0 81 95
r 0.845376 2 0 ack 40 ------- 1 4.0 0.0 3 87
+ 0.845376 0 2 tcp 1040 ------- 1 0.0 4.0 7 101
- 0.845376 0 2 tcp 1040 ------- 1 0.0 4.0 7 101
+ 0.845376 0 2 tcp 1040 ------- 1 0.0 4.0 8 102
r 0.846208 2 0 ack 40 ------- 1 4.0 0.0 4 88
+ 0.846208 0 2 tcp 1040 ------- 1 0.0 4.0 9 103
+ 0.846208 0 2 tcp 1040 ------- 1 0.0 4.0 10 104
- 0.846208 0 2 tcp 1040 ------- 1 0.0 4.0 8 102
r 0.84704 2 0 ack 40 ------- 1 4.0 0.0 5 89
+ 0.84704 0 2 tcp 1040 ------- 1 0.0 4.0 11 105
+ 0.84704 0 2 tcp 1040 ------- 1 0.0 4.0 12 106
- 0.84704 0 2 tcp 1040 ------- 1 0.0 4.0 9 103
- 0.847872 0 2 tcp 1040 ------- 1 0.0 4.0 10 104
+ 0.848 2 3 cbr 1000 ------- 0 2.0 3.0 87 107
- 0.848 2 3 cbr 1000 ------- 0 2.0 3.0 87 107
r 0.848672 2 0 ack 40 ------- 1 4.0 0.0 6 91
+ 0.848672 0 2 tcp 1040 ------- 1 0.0 4.0 13 108
+ 0.848672 0 2 tcp 1040 ------- 1 0.0 4.0 14 109
- 0.848704 0 2 tcp 1040 ------- 1 0.0 4.0 11 105
r 0.8488 2 3 cbr 1000 ------- 0 2.0 3.0 82 96
- 0.849536 0 2 tcp 1040 ------- 1 0.0 4.0 12 106
- 0.850368 0 2 tcp 1040 ------- 1 0.0 4.0 13 108
- 0.8512 0 2 tcp 1040 ------- 1 0.0 4.0 14 109
+ 0.852 2 3 cbr 1000 ------- 0 2.0 3.0 88 110
- 0.852 2 3 cbr 1000 ------- 0 2.0 3.0 88 110
r 0.8528 2 3 cbr 1000 ------- 0 2.0 3.0 83 97
+ 0.856 2 3 cbr 1000 ------- 0 2.0 3.0 89 111
- 0.856 2 3 cbr 1000 ------- 0 2.0 3.0 89 111
r 0.856208 0 2 tcp 1040 ------- 1 0.0 4.0 7 101
+ 0.856208 2 3 tcp 1040 ------- 1 0.0 4.0 7 101
r 0.8568 2 3 cbr 1000 ------- 0 2.0 3.0 84 98
- 0.8568 2 3 tcp 1040 ------- 1 0.0 4.0 7 101
r 0.85704 0 2 tcp 1040 ------- 1 0.0 4.0 8 102
+ 0.85704 2 3 tcp 1040 ------- 1 0.0 4.0 8 102
- 0.857632 2 3 tcp 1040 ------- 1 0.0 4.0 8 102
r 0.857872 0 2 tcp 1040 ------- 1 0.0 4.0 9 103
+ 0.857872 2 3 tcp 1040 ------- 1 0.0 4.0 9 103
- 0.858464 2 3 tcp 1040 ------- 1 0.0 4.0 9 103
r 0.858704 0 2 tcp 1040 ------- 1 0.0 4.0 10 104
+ 0.858704 2 3 tcp 1040 ------- 1 0.0 4.0 10 104
- 0.859296 2 3 tcp 1040 ------- 1 0.0 4.0 10 104
r 0.859536 0 2 tcp 1040 ------- 1 0.0 4.0 11 105
+ 0.859536 2 3 tcp 1040 ------- 1 0.0 4.0 11 105
+ 0.86 2 3 cbr 1000 ------- 0 2.0 3.0 90 112
- 0.860128 2 3 tcp 1040 ------- 1 0.0 4.0 11 105
r 0.860368 0 2 tcp 1040 ------- 1 0.0 4.0 12 106
+ 0.860368 2 3 tcp 1040 ------- 1 0.0 4.0 12 106
r 0.8608 2 3 cbr 1000 ------- 0 2.0 3.0 85 99
- 0.86096 2 3 cbr 1000 ------- 0 2.0 3.0 90 112
r 0.8612 0 2 tcp 1040 ------- 1 0.0 4.0 13 108
+ 0.8612 2 3 tcp 1040 ------- 1 0.0 4.0 13 108
- 0.86176 2 3 tcp 1040 ------- 1 0.0 4.0 12 106
r 0.862032 0 2 tcp 1040 ------- 1 0.0 4.0 14 109
+ 0.862032 2 3 tcp 1040 ------- 1 0.0 4.0 14 109
- 0.862592 2 3 tcp 1040 ------- 1 0.0 4.0 13 108
- 0.863424 2 3 tcp 1040 ------- 1 0.0 4.0 14 109
+ 0.864 2 3 cbr 1000 ------- 0 2.0 3.0 91 113
- 0.864256 2 3 cbr 1000 ------- 0 2.0 3.0 91 113
r 0.8648 2 3 cbr 1000 ------- 0 2.0 3.0 86 100
+ 0.868 2 3 cbr 1000 ------- 0 2.0 3.0 92 114
- 0.868 2 3 cbr 1000 ------- 0 2.0 3.0 92 114
r 0.8688 2 3 cbr 1000 ------- 0 2.0 3.0 87 107
+ 0.872 2 3 cbr 1000 ------- 0 2.0 3.0 93 115
- 0.872 2 3 cbr 1000 ------- 0 2.0 3.0 93 115
r 0.8728 2 3 cbr 1000 ------- 0 2.0 3.0 88 110
+ 0.876 2 3 cbr 1000 ------- 0 2.0 3.0 94 116
- 0.876 2 3 cbr 1000 ------- 0 2.0 3.0 94 116
r 0.8768 2 3 cbr 1000 ------- 0 2.0 3.0 89 111
r 0.877632 2 3 tcp 1040 ------- 1 0.0 4.0 7 101
+ 0.877632 3 4 tcp 1040 ------- 1 0.0 4.0 7 101
- 0.877632 3 4 tcp 1040 ------- 1 0.0 4.0 7 101
r 0.878464 2 3 tcp 1040 ------- 1 0.0 4.0 8 102
+ 0.878464 3 4 tcp 1040 ------- 1 0.0 4.0 8 102
- 0.878464 3 4 tcp 1040 ------- 1 0.0 4.0 8 102
r 0.879296 2 3 tcp 1040 ------- 1 0.0 4.0 9 103
+ 0.879296 3 4 tcp 1040 ------- 1 0.0 4.0 9 103
- 0.879296 3 4 tcp 1040 ------- 1 0.0 4.0 9 103
+ 0.88 2 3 cbr 1000 ------- 0 2.0 3.0 95 117
- 0.88 2 3 cbr 1000 ------- 0 2.0 3.0 95 117
r 0.880128 2 3 tcp 1040 ------- 1 0.0 4.0 10 104
+ 0.880128 3 4 tcp 1040 ------- 1 0.0 4.0 10 104
- 0.880128 3 4 tcp 1040 ------- 1 0.0 4.0 10 104
r 0.88096 2 3 tcp 1040 ------- 1 0.0 4.0 11 105
+ 0.88096 3 4 tcp 1040 ------- 1 0.0 4.0 11 105
- 0.88096 3 4 tcp 1040 ------- 1 0.0 4.0 11 105
r 0.88176 2 3 cbr 1000 ------- 0 2.0 3.0 90 112
r 0.882592 2 3 tcp 1040 ------- 1 0.0 4.0 12 106
+ 0.882592 3 4 tcp 1040 ------- 1 0.0 4.0 12 106
- 0.882592 3 4 tcp 1040 ------- 1 0.0 4.0 12 106
r 0.883424 2 3 tcp 1040 ------- 1 0.0 4.0 13 108
+ 0.883424 3 4 tcp 1040 ------- 1 0.0 4.0 13 108
- 0.883424 3 4 tcp 1040 ------- 1 0.0 4.0 13 108
+ 0.884 2 3 cbr 1000 ------- 0 2.0 3.0 96 118
- 0.884 2 3 cbr 1000 ------- 0 2.0 3.0 96 118
r 0.884256 2 3 tcp 1040 ------- 1 0.0 4.0 14 109
+ 0.884256 3 4 tcp 1040 ------- 1 0.0 4.0 14 109
- 0.884256 3 4 tcp 1040 ------- 1 0.0 4.0 14 109
r 0.885056 2 3 cbr 1000 ------- 0 2.0 3.0 91 113
+ 0.888 2 3 cbr 1000 ------- 0 2.0 3.0 97 119
- 0.888 2 3 cbr 1000 ------- 0 2.0 3.0 97 119
r 0.888464 3 4 tcp 1040 ------- 1 0.0 4.0 7 101
+ 0.888464 4 3 ack 40 ------- 1 4.0 0.0 7 120
- 0.888464 4 3 ack 40 ------- 1 4.0 0.0 7 120
r 0.8888 2 3 cbr 1000 ------- 0 2.0 3.0 92 114
r 0.889296 3 4 tcp 1040 ------- 1 0.0 4.0 8 102
+ 0.889296 4 3 ack 40 ------- 1 4.0 0.0 8 121
- 0.889296 4 3 ack 40 ------- 1 4.0 0.0 8 121
r 0.890128 3 4 tcp 1040 ------- 1 0.0 4.0 9 103
+ 0.890128 4 3 ack 40 ------- 1 4.0 0.0 9 122
- 0.890128 4 3 ack 40 ------- 1 4.0 0.0 9 122
r 0.89096 3 4 tcp 1040 ------- 1 0.0 4.0 10 104
+ 0.89096 4 3 ack 40 ------- 1 4.0 0.0 10 123
- 0.89096 4 3 ack 40 ------- 1 4.0 0.0 10 123
r 0.891792 3 4 tcp 1040 ------- 1 0.0 4.0 11 105
+ 0.891792 4 3 ack 40 ------- 1 4.0 0.0 11 124
- 0.891792 4 3 ack 40 ------- 1 4.0 0.0 11 124
+ 0.892 2 3 cbr 1000 ------- 0 2.0 3.0 98 125
- 0.892 2 3 cbr 1000 ------- 0 2.0 3.0 98 125
r 0.8928 2 3 cbr 1000 ------- 0 2.0 3.0 93 115
r 0.893424 3 4 tcp 1040 ------- 1 0.0 4.0 12 106
+ 0.893424 4 3 ack 40 ------- 1 4.0 0.0 12 126
- 0.893424 4 3 ack 40 ------- 1 4.0 0.0 12 126
r 0.894256 3 4 tcp 1040 ------- 1 0.0 4.0 13 108
+ 0.894256 4 3 ack 40 ------- 1 4.0 0.0 13 127
- 0.894256 4 3 ack 40 ------- 1 4.0 0.0 13 127
r 0.895088 3 4 tcp 1040 ------- 1 0.0 4.0 14 109
+ 0.895088 4 3 ack 40 ------- 1 4.0 0.0 14 128
- 0.895088 4 3 ack 40 ------- 1 4.0 0.0 14 128
+ 0.896 2 3 cbr 1000 ------- 0 2.0 3.0 99 129
- 0.896 2 3 cbr 1000 ------- 0 2.0 3.0 99 129
r 0.8968 2 3 cbr 1000 ------- 0 2.0 3.0 94 116
r 0.898496 4 3 ack 40 ------- 1 4.0 0.0 7 120
+ 0.898496 3 2 ack 40 ------- 1 4.0 0.0 7 120
- 0.898496 3 2 ack 40 ------- 1 4.0 0.0 7 120
r 0.899328 4 3 ack 40 ------- 1 4.0 0.0 8 121
+ 0.899328 3 2 ack 40 ------- 1 4.0 0.0 8 121
- 0.899328 3 2 ack 40 ------- 1 4.0 0.0 8 121
+ 0.9 2 3 cbr 1000 ------- 0 2.0 3.0 100 130
- 0.9 2 3 cbr 1000 ------- 0 2.0 3.0 100 130
r 0.90016 4 3 ack 40 ------- 1 4.0 0.0 9 122
+ 0.90016 3 2 ack 40 ------- 1 4.0 0.0 9 122
- 0.90016 3 2 ack 40 ------- 1 4.0 0.0 9 122
r 0.9008 2 3 cbr 1000 ------- 0 2.0 3.0 95 117
r 0.900992 4 3 ack 40 ------- 1 4.0 0.0 10 123
+ 0.900992 3 2 ack 40 ------- 1 4.0 0.0 10 123
- 0.900992 3 2 ack 40 ------- 1 4.0 0.0 10 123
r 0.901824 4 3 ack 40 ------- 1 4.0 0.0 11 124
+ 0.901824 3 2 ack 40 ------- 1 4.0 0.0 11 124
- 0.901824 3 2 ack 40 ------- 1 4.0 0.0 11 124
r 0.903456 4 3 ack 40 ------- 1 4.0 0.0 12 126
+ 0.903456 3 2 ack 40 ------- 1 4.0 0.0 12 126
- 0.903456 3 2 ack 40 ------- 1 4.0 0.0 12 126
+ 0.904 2 3 cbr 1000 ------- 0 2.0 3.0 101 131
- 0.904 2 3 cbr 1000 ------- 0 2.0 3.0 101 131
r 0.904288 4 3 ack 40 ------- 1 4.0 0.0 13 127
+ 0.904288 3 2 ack 40 ------- 1 4.0 0.0 13 127
- 0.904288 3 2 ack 40 ------- 1 4.0 0.0 13 127
r 0.9048 2 3 cbr 1000 ------- 0 2.0 3.0 96 118
r 0.90512 4 3 ack 40 ------- 1 4.0 0.0 14 128
+ 0.90512 3 2 ack 40 ------- 1 4.0 0.0 14 128
- 0.90512 3 2 ack 40 ------- 1 4.0 0.0 14 128
+ 0.908 2 3 cbr 1000 ------- 0 2.0 3.0 102 132
- 0.908 2 3 cbr 1000 ------- 0 2.0 3.0 102 132
r 0.9088 2 3 cbr 1000 ------- 0 2.0 3.0 97 119
+ 0.912 2 3 cbr 1000 ------- 0 2.0 3.0 103 133
- 0.912 2 3 cbr 1000 ------- 0 2.0 3.0 103 133
r 0.9128 2 3 cbr 1000 ------- 0 2.0 3.0 98 125
+ 0.916 2 3 cbr 1000 ------- 0 2.0 3.0 104 134
- 0.916 2 3 cbr 1000 ------- 0 2.0 3.0 104 134
r 0.9168 2 3 cbr 1000 ------- 0 2.0 3.0 99 129
r 0.918528 3 2 ack 40 ------- 1 4.0 0.0 7 120
+ 0.918528 2 0 ack 40 ------- 1 4.0 0.0 7 120
- 0.918528 2 0 ack 40 ------- 1 4.0 0.0 7 120
r 0.91936 3 2 ack 40 ------- 1 4.0 0.0 8 121
+ 0.91936 2 0 ack 40 ------- 1 4.0 0.0 8 121
- 0.91936 2 0 ack 40 ------- 1 4.0 0.0 8 121
+ 0.92 2 3 cbr 1000 ------- 0 2.0 3.0 105 135
- 0.92 2 3 cbr 1000 ------- 0 2.0 3.0 105 135
r 0.920192 3 2 ack 40 ------- 1 4.0 0.0 9 122
+ 0.920192 2 0 ack 40 ------- 1 4.0 0.0 9 122
- 0.920192 2 0 ack 40 ------- 1 4.0 0.0 9 122
r 0.9208 2 3 cbr 1000 ------- 0 2.0 3.0 100 130
r 0.921024 3 2 ack 40 ------- 1 4.0 0.0 10 123
+ 0.921024 2 0 ack 40 ------- 1 4.0 0.0 10 123
- 0.921024 2 0 ack 40 ------- 1 4.0 0.0 10 123
r 0.921856 3 2 ack 40 ------- 1 4.0 0.0 11 124
+ 0.921856 2 0 ack 40 ------- 1 4.0 0.0 11 124
- 0.921856 2 0 ack 40 ------- 1 4.0 0.0 11 124
r 0.923488 3 2 ack 40 ------- 1 4.0 0.0 12 126
+ 0.923488 2 0 ack 40 ------- 1 4.0 0.0 12 126
- 0.923488 2 0 ack 40 ------- 1 4.0 0.0 12 126
+ 0.924 2 3 cbr 1000 ------- 0 2.0 3.0 106 136
- 0.924 2 3 cbr 1000 ------- 0 2.0 3.0 106 136
r 0.92432 3 2 ack 40 ------- 1 4.0 0.0 13 127
+ 0.92432 2 0 ack 40 ------- 1 4.0 0.0 13 127
- 0.92432 2 0 ack 40 ------- 1 4.0 0.0 13 127
r 0.9248 2 3 cbr 1000 ------- 0 2.0 3.0 101 131
r 0.925152 3 2 ack 40 ------- 1 4.0 0.0 14 128
+ 0.925152 2 0 ack 40 ------- 1 4.0 0.0 14 128
- 0.925152 2 0 ack 40 ------- 1 4.0 0.0 14 128
+ 0.928 2 3 cbr 1000 ------- 0 2.0 3.0 107 137
- 0.928 2 3 cbr 1000 ------- 0 2.0 3.0 107 137
r 0.92856 2 0 ack 40 ------- 1 4.0 0.0 7 120
+ 0.92856 0 2 tcp 1040 ------- 1 0.0 4.0 15 138
- 0.92856 0 2 tcp 1040 ------- 1 0.0 4.0 15 138
+ 0.92856 0 2 tcp 1040 ------- 1 0.0 4.0 16 139
r 0.9288 2 3 cbr 1000 ------- 0 2.0 3.0 102 132
r 0.929392 2 0 ack 40 ------- 1 4.0 0.0 8 121
+ 0.929392 0 2 tcp 1040 ------- 1 0.0 4.0 17 140
+ 0.929392 0 2 tcp 1040 ------- 1 0.0 4.0 18 141
- 0.929392 0 2 tcp 1040 ------- 1 0.0 4.0 16 139
r 0.930224 2 0 ack 40 ------- 1 4.0 0.0 9 122
+ 0.930224 0 2 tcp 1040 ------- 1 0.0 4.0 19 142
+ 0.930224 0 2 tcp 1040 ------- 1 0.0 4.0 20 143
- 0.930224 0 2 tcp 1040 ------- 1 0.0 4.0 17 140
r 0.931056 2 0 ack 40 ------- 1 4.0 0.0 10 123
+ 0.931056 0 2 tcp 1040 ------- 1 0.0 4.0 21 144
+ 0.931056 0 2 tcp 1040 ------- 1 0.0 4.0 22 145
- 0.931056 0 2 tcp 1040 ------- 1 0.0 4.0 18 141
r 0.931888 2 0 ack 40 ------- 1 4.0 0.0 11 124
+ 0.931888 0 2 tcp 1040 ------- 1 0.0 4.0 23 146
+ 0.931888 0 2 tcp 1040 ------- 1 0.0 4.0 24 147
- 0.931888 0 2 tcp 1040 ------- 1 0.0 4.0 19 142
+ 0.932 2 3 cbr 1000 ------- 0 2.0 3.0 108 148
- 0.932 2 3 cbr 1000 ------- 0 2.0 3.0 108 148
- 0.93272 0 2 tcp 1040 ------- 1 0.0 4.0 20 143
r 0.9328 2 3 cbr 1000 ------- 0 2.0 3.0 103 133
r 0.93352 2 0 ack 40 ------- 1 4.0 0.0 12 126
+ 0.93352 0 2 tcp 1040 ------- 1 0.0 4.0 25 149
+ 0.93352 0 2 tcp 1040 ------- 1 0.0 4.0 26 150
- 0.933552 0 2 tcp 1040 ------- 1 0.0 4.0 21 144
r 0.934352 2 0 ack 40 ------- 1 4.0 0.0 13 127
+ 0.934352 0 2 tcp 1040 ------- 1 0.0 4.0 27 151
+ 0.934352 0 2 tcp 1040 ------- 1 0.0 4.0 28 152
- 0.934384 0 2 tcp 1040 ------- 1 0.0 4.0 22 145
r 0.935184 2 0 ack 40 ------- 1 4.0 0.0 14 128
+ 0.935184 0 2 tcp 1040 ------- 1 0.0 4.0 29 153
+ 0.935184 0 2 tcp 1040 ------- 1 0.0 4.0 30 154
- 0.935216 0 2 tcp 1040 ------- 1 0.0 4.0 23 146
+ 0.936 2 3 cbr 1000 ------- 0 2.0 3.0 109 155
- 0.936 2 3 cbr 1000 ------- 0 2.0 3.0 109 155
- 0.936048 0 2 tcp 1040 ------- 1 0.0 4.0 24 147
r 0.9368 2 3 cbr 1000 ------- 0 2.0 3.0 104 134
- 0.93688 0 2 tcp 1040 ------- 1 0.0 4.0 25 149
- 0.937712 0 2 tcp 1040 ------- 1 0.0 4.0 26 150
- 0.938544 0 2 tcp 1040 ------- 1 0.0 4.0 27 151
- 0.939376 0 2 tcp 1040 ------- 1 0.0 4.0 28 152
r 0.939392 0 2 tcp 1040 ------- 1 0.0 4.0 15 138
+ 0.939392 2 3 tcp 1040 ------- 1 0.0 4.0 15 138
- 0.939392 2 3 tcp 1040 ------- 1 0.0 4.0 15 138
+ 0.94 2 3 cbr 1000 ------- 0 2.0 3.0 110 156
- 0.940208 0 2 tcp 1040 ------- 1 0.0 4.0 29 153
r 0.940224 0 2 tcp 1040 ------- 1 0.0 4.0 16 139
+ 0.940224 2 3 tcp 1040 ------- 1 0.0 4.0 16 139
- 0.940224 2 3 cbr 1000 ------- 0 2.0 3.0 110 156
r 0.9408 2 3 cbr 1000 ------- 0 2.0 3.0 105 135
- 0.941024 2 3 tcp 1040 ------- 1 0.0 4.0 16 139
- 0.94104 0 2 tcp 1040 ------- 1 0.0 4.0 30 154
r 0.941056 0 2 tcp 1040 ------- 1 0.0 4.0 17 140
+ 0.941056 2 3 tcp 1040 ------- 1 0.0 4.0 17 140
- 0.941856 2 3 tcp 1040 ------- 1 0.0 4.0 17 140
r 0.941888 0 2 tcp 1040 ------- 1 0.0 4.0 18 141
+ 0.941888 2 3 tcp 1040 ------- 1 0.0 4.0 18 141
- 0.942688 2 3 tcp 1040 ------- 1 0.0 4.0 18 141
r 0.94272 0 2 tcp 1040 ------- 1 0.0 4.0 19 142
+ 0.94272 2 3 tcp 1040 ------- 1 0.0 4.0 19 142
- 0.94352 2 3 tcp 1040 ------- 1 0.0 4.0 19 142
r 0.943552 0 2 tcp 1040 ------- 1 0.0 4.0 20 143
+ 0.943552 2 3 tcp 1040 ------- 1 0.0 4.0 20 143
+ 0.944 2 3 cbr 1000 ------- 0 2.0 3.0 111 157
- 0.944352 2 3 tcp 1040 ------- 1 0.0 4.0 20 143
r 0.944384 0 2 tcp 1040 ------- 1 0.0 4.0 21 144