+ 0.5 2 3 cbr 1000 ------- 0 2.0 3.0 0 0
- 0.5 2 3 cbr 1000 ------- 0 2.0 3.0 0 0
+ 0.502667 2 3 cbr 1000 ------- 0 2.0 3.0 1 1
- 0.502667 2 3 cbr 1000 ------- 0 2.0 3.0 1 1
+ 0.505333 2 3 cbr 1000 ------- 0 2.0 3.0 2 2
- 0.505333 2 3 cbr 1000 ------- 0 2.0 3.0 2 2
+ 0.508 2 3 cbr 1000 ------- 0 2.0 3.0 3 3
- 0.508 2 3 cbr 1000 ------- 0 2.0 3.0 3 3
+ 0.510667 2 3 cbr 1000 ------- 0 2.0 3.0 4 4
- 0.510667 2 3 cbr 1000 ------- 0 2.0 3.0 4 4
+ 0.513333 2 3 cbr 1000 ------- 0 2.0 3.0 5 5
- 0.513333 2 3 cbr 1000 ------- 0 2.0 3.0 5 5
+ 0.516 2 3 cbr 1000 ------- 0 2.0 3.0 6 6
- 0.516 2 3 cbr 1000 ------- 0 2.0 3.0 6 6
+ 0.518667 2 3 cbr 1000 ------- 0 2.0 3.0 7 7
- 0.518667 2 3 cbr 1000 ------- 0 2.0 3.0 7 7
r 0.5208 2 3 cbr 1000 ------- 0 2.0 3.0 0 0
+ 0.521333 2 3 cbr 1000 ------- 0 2.0 3.0 8 8
- 0.521333 2 3 cbr 1000 ------- 0 2.0 3.0 8 8
r 0.523467 2 3 cbr 1000 ------- 0 2.0 3.0 1 1
+ 0.524 2 3 cbr 1000 ------- 0 2.0 3.0 9 9
- 0.524 2 3 cbr 1000 ------- 0 2.0 3.0 9 9
r 0.526133 2 3 cbr 1000 ------- 0 2.0 3.0 2 2
+ 0.526667 2 3 cbr 1000 ------- 0 2.0 3.0 10 10
- 0.526667 2 3 cbr 1000 ------- 0 2.0 3.0 10 10
r 0.5288 2 3 cbr 1000 ------- 0 2.0 3.0 3 3
+ 0.529333 2 3 cbr 1000 ------- 0 2.0 3.0 11 11
- 0.529333 2 3 cbr 1000 ------- 0 2.0 3.0 11 11
r 0.531467 2 3 cbr 1000 ------- 0 2.0 3.0 4 4
+ 0.532 2 3 cbr 1000 ------- 0 2.0 3.0 12 12
- 0.532 2 3 cbr 1000 ------- 0 2.0 3.0 12 12
r 0.534133 2 3 cbr 1000 ------- 0 2.0 3.0 5 5
+ 0.534667 2 3 cbr 1000 ------- 0 2.0 3.0 13 13
- 0.534667 2 3 cbr 1000 ------- 0 2.0 3.0 13 13
r 0.5368 2 3 cbr 1000 ------- 0 2.0 3.0 6 6
+ 0.537333 2 3 cbr 1000 ------- 0 2.0 3.0 14 14
- 0.537333 2 3 cbr 1000 ------- 0 2.0 3.0 14 14
r 0.539467 2 3 cbr 1000 ------- 0 2.0 3.0 7 7
+ 0.54 2 3 cbr 1000 ------- 0 2.0 3.0 15 15
- 0.54 2 3 cbr 1000 ------- 0 2.0 3.0 15 15
r 0.542133 2 3 cbr 1000 ------- 0 2.0 3.0 8 8
+ 0.542667 2 3 cbr 1000 ------- 0 2.0 3.0 16 16
- 0.542667 2 3 cbr 1000 ------- 0 2.0 3.0 16 16
r 0.5448 2 3 cbr 1000 ------- 0 2.0 3.0 9 9
+ 0.545333 2 3 cbr 1000 ------- 0 2.0 3.0 17 17
- 0.545333 2 3 cbr 1000 ------- 0 2.0 3.0 17 17
r 0.547467 2 3 cbr 1000 ------- 0 2.0 3.0 10 10
+ 0.548 2 3 cbr 1000 ------- 0 2.0 3.0 18 18
- 0.548 2 3 cbr 1000 ------- 0 2.0 3.0 18 18
r 0.550133 2 3 cbr 1000 ------- 0 2.0 3.0 11 11
+ 0.550667 2 3 cbr 1000 ------- 0 2.0 3.0 19 19
- 0.550667 2 3 cbr 1000 ------- 0 2.0 3.0 19 19
r 0.5528 2 3 cbr 1000 ------- 0 2.0 3.0 12 12
+ 0.553333 2 3 cbr 1000 ------- 0 2.0 3.0 20 20
- 0.553333 2 3 cbr 1000 ------- 0 2.0 3.0 20 20
r 0.555467 2 3 cbr 1000 ------- 0 2.0 3.0 13 13
+ 0.556 2 3 cbr 1000 ------- 0 2.0 3.0 21 21
- 0.556 2 3 cbr 1000 ------- 0 2.0 3.0 21 21
r 0.558133 2 3 cbr 1000 ------- 0 2.0 3.0 14 14
+ 0.558667 2 3 cbr 1000 ------- 0 2.0 3.0 22 22
- 0.558667 2 3 cbr 1000 ------- 0 2.0 3.0 22 22
r 0.5608 2 3 cbr 1000 ------- 0 2.0 3.0 15 15
+ 0.561333 2 3 cbr 1000 ------- 0 2.0 3.0 23 23
- 0.561333 2 3 cbr 1000 ------- 0 2.0 3.0 23 23
r 0.563467 2 3 cbr 1000 ------- 0 2.0 3.0 16 16
+ 0.564 2 3 cbr 1000 ------- 0 2.0 3.0 24 24
- 0.564 2 3 cbr 1000 ------- 0 2.0 3.0 24 24
r 0.566133 2 3 cbr 1000 ------- 0 2.0 3.0 17 17
+ 0.566667 2 3 cbr 1000 ------- 0 2.0 3.0 25 25
- 0.566667 2 3 cbr 1000 ------- 0 2.0 3.0 25 25
r 0.5688 2 3 cbr 1000 ------- 0 2.0 3.0 18 18
+ 0.569333 2 3 cbr 1000 ------- 0 2.0 3.0 26 26
- 0.569333 2 3 cbr 1000 ------- 0 2.0 3.0 26 26
r 0.571467 2 3 cbr 1000 ------- 0 2.0 3.0 19 19
+ 0.572 2 3 cbr 1000 ------- 0 2.0 3.0 27 27
- 0.572 2 3 cbr 1000 ------- 0 2.0 3.0 27 27
r 0.574133 2 3 cbr 1000 ------- 0 2.0 3.0 20 20
+ 0.574667 2 3 cbr 1000 ------- 0 2.0 3.0 28 28
- 0.574667 2 3 cbr 1000 ------- 0 2.0 3.0 28 28
r 0.5768 2 3 cbr 1000 ------- 0 2.0 3.0 21 21
+ 0.577333 2 3 cbr 1000 ------- 0 2.0 3.0 29 29
- 0.577333 2 3 cbr 1000 ------- 0 2.0 3.0 29 29
r 0.579467 2 3 cbr 1000 ------- 0 2.0 3.0 22 22
+ 0.58 2 3 cbr 1000 ------- 0 2.0 3.0 30 30
- 0.58 2 3 cbr 1000 ------- 0 2.0 3.0 30 30
r 0.582133 2 3 cbr 1000 ------- 0 2.0 3.0 23 23
+ 0.582667 2 3 cbr 1000 ------- 0 2.0 3.0 31 31
- 0.582667 2 3 cbr 1000 ------- 0 2.0 3.0 31 31
r 0.5848 2 3 cbr 1000 ------- 0 2.0 3.0 24 24
+ 0.585333 2 3 cbr 1000 ------- 0 2.0 3.0 32 32
- 0.585333 2 3 cbr 1000 ------- 0 2.0 3.0 32 32
r 0.587467 2 3 cbr 1000 ------- 0 2.0 3.0 25 25
+ 0.588 2 3 cbr 1000 ------- 0 2.0 3.0 33 33
- 0.588 2 3 cbr 1000 ------- 0 2.0 3.0 33 33
r 0.590133 2 3 cbr 1000 ------- 0 2.0 3.0 26 26
+ 0.590667 2 3 cbr 1000 ------- 0 2.0 3.0 34 34
- 0.590667 2 3 cbr 1000 ------- 0 2.0 3.0 34 34
r 0.5928 2 3 cbr 1000 ------- 0 2.0 3.0 27 27
+ 0.593333 2 3 cbr 1000 ------- 0 2.0 3.0 35 35
- 0.593333 2 3 cbr 1000 ------- 0 2.0 3.0 35 35
r 0.595467 2 3 cbr 1000 ------- 0 2.0 3.0 28 28
+ 0.596 2 3 cbr 1000 ------- 0 2.0 3.0 36 36
- 0.596 2 3 cbr 1000 ------- 0 2.0 3.0 36 36
r 0.598133 2 3 cbr 1000 ------- 0 2.0 3.0 29 29
+ 0.598667 2 3 cbr 1000 ------- 0 2.0 3.0 37 37
- 0.598667 2 3 cbr 1000 ------- 0 2.0 3.0 37 37
+ 0.6 0 2 tcp 40 ------- 1 0.0 4.0 0 38
- 0.6 0 2 tcp 40 ------- 1 0.0 4.0 0 38
r 0.6008 2 3 cbr 1000 ------- 0 2.0 3.0 30 30
+ 0.601333 2 3 cbr 1000 ------- 0 2.0 3.0 38 39
- 0.601333 2 3 cbr 1000 ------- 0 2.0 3.0 38 39
r 0.603467 2 3 cbr 1000 ------- 0 2.0 3.0 31 31
+ 0.604 2 3 cbr 1000 ------- 0 2.0 3.0 39 40
- 0.604 2 3 cbr 1000 ------- 0 2.0 3.0 39 40
r 0.606133 2 3 cbr 1000 ------- 0 2.0 3.0 32 32
+ 0.606667 2 3 cbr 1000 ------- 0 2.0 3.0 40 41
- 0.606667 2 3 cbr 1000 ------- 0 2.0 3.0 40 41
r 0.6088 2 3 cbr 1000 ------- 0 2.0 3.0 33 33
+ 0.609333 2 3 cbr 1000 ------- 0 2.0 3.0 41 42
- 0.609333 2 3 cbr 1000 ------- 0 2.0 3.0 41 42
r 0.610032 0 2 tcp 40 ------- 1 0.0 4.0 0 38
+ 0.610032 2 3 tcp 40 ------- 1 0.0 4.0 0 38
- 0.610133 2 3 tcp 40 ------- 1 0.0 4.0 0 38
r 0.611467 2 3 cbr 1000 ------- 0 2.0 3.0 34 34
+ 0.612 2 3 cbr 1000 ------- 0 2.0 3.0 42 43
- 0.612 2 3 cbr 1000 ------- 0 2.0 3.0 42 43
r 0.614133 2 3 cbr 1000 ------- 0 2.0 3.0 35 35
+ 0.614667 2 3 cbr 1000 ------- 0 2.0 3.0 43 44
- 0.614667 2 3 cbr 1000 ------- 0 2.0 3.0 43 44
r 0.6168 2 3 cbr 1000 ------- 0 2.0 3.0 36 36
+ 0.617333 2 3 cbr 1000 ------- 0 2.0 3.0 44 45
- 0.617333 2 3 cbr 1000 ------- 0 2.0 3.0 44 45
r 0.619467 2 3 cbr 1000 ------- 0 2.0 3.0 37 37
+ 0.62 2 3 cbr 1000 ------- 0 2.0 3.0 45 46
- 0.62 2 3 cbr 1000 ------- 0 2.0 3.0 45 46
r 0.622133 2 3 cbr 1000 ------- 0 2.0 3.0 38 39
+ 0.622667 2 3 cbr 1000 ------- 0 2.0 3.0 46 47
- 0.622667 2 3 cbr 1000 ------- 0 2.0 3.0 46 47
r 0.6248 2 3 cbr 1000 ------- 0 2.0 3.0 39 40
+ 0.625333 2 3 cbr 1000 ------- 0 2.0 3.0 47 48
- 0.625333 2 3 cbr 1000 ------- 0 2.0 3.0 47 48
r 0.627467 2 3 cbr 1000 ------- 0 2.0 3.0 40 41
+ 0.628 2 3 cbr 1000 ------- 0 2.0 3.0 48 49
- 0.628 2 3 cbr 1000 ------- 0 2.0 3.0 48 49
r 0.630133 2 3 cbr 1000 ------- 0 2.0 3.0 41 42
r 0.630165 2 3 tcp 40 ------- 1 0.0 4.0 0 38
+ 0.630165 3 4 tcp 40 ------- 1 0.0 4.0 0 38
- 0.630165 3 4 tcp 40 ------- 1 0.0 4.0 0 38
+ 0.630667 2 3 cbr 1000 ------- 0 2.0 3.0 49 50
- 0.630667 2 3 cbr 1000 ------- 0 2.0 3.0 49 50
r 0.6328 2 3 cbr 1000 ------- 0 2.0 3.0 42 43
+ 0.633333 2 3 cbr 1000 ------- 0 2.0 3.0 50 51
- 0.633333 2 3 cbr 1000 ------- 0 2.0 3.0 50 51
r 0.635467 2 3 cbr 1000 ------- 0 2.0 3.0 43 44
+ 0.636 2 3 cbr 1000 ------- 0 2.0 3.0 51 52
- 0.636 2 3 cbr 1000 ------- 0 2.0 3.0 51 52
r 0.638133 2 3 cbr 1000 ------- 0 2.0 3.0 44 45
+ 0.638667 2 3 cbr 1000 ------- 0 2.0 3.0 52 53
- 0.638667 2 3 cbr 1000 ------- 0 2.0 3.0 52 53
r 0.640197 3 4 tcp 40 ------- 1 0.0 4.0 0 38
+ 0.640197 4 3 ack 40 ------- 1 4.0 0.0 0 54
- 0.640197 4 3 ack 40 ------- 1 4.0 0.0 0 54
r 0.6408 2 3 cbr 1000 ------- 0 2.0 3.0 45 46
+ 0.641333 2 3 cbr 1000 ------- 0 2.0 3.0 53 55
- 0.641333 2 3 cbr 1000 ------- 0 2.0 3.0 53 55
r 0.643467 2 3 cbr 1000 ------- 0 2.0 3.0 46 47
+ 0.644 2 3 cbr 1000 ------- 0 2.0 3.0 54 56
- 0.644 2 3 cbr 1000 ------- 0 2.0 3.0 54 56
r 0.646133 2 3 cbr 1000 ------- 0 2.0 3.0 47 48
+ 0.646667 2 3 cbr 1000 ------- 0 2.0 3.0 55 57
- 0.646667 2 3 cbr 1000 ------- 0 2.0 3.0 55 57
r 0.6488 2 3 cbr 1000 ------- 0 2.0 3.0 48 49
+ 0.649333 2 3 cbr 1000 ------- 0 2.0 3.0 56 58
- 0.649333 2 3 cbr 1000 ------- 0 2.0 3.0 56 58
r 0.650229 4 3 ack 40 ------- 1 4.0 0.0 0 54
+ 0.650229 3 2 ack 40 ------- 1 4.0 0.0 0 54
- 0.650229 3 2 ack 40 ------- 1 4.0 0.0 0 54
r 0.651467 2 3 cbr 1000 ------- 0 2.0 3.0 49 50
+ 0.652 2 3 cbr 1000 ------- 0 2.0 3.0 57 59
- 0.652 2 3 cbr 1000 ------- 0 2.0 3.0 57 59
r 0.654133 2 3 cbr 1000 ------- 0 2.0 3.0 50 51
+ 0.654667 2 3 cbr 1000 ------- 0 2.0 3.0 58 60
- 0.654667 2 3 cbr 1000 ------- 0 2.0 3.0 58 60
r 0.6568 2 3 cbr 1000 ------- 0 2.0 3.0 51 52
+ 0.657333 2 3 cbr 1000 ------- 0 2.0 3.0 59 61
- 0.657333 2 3 cbr 1000 ------- 0 2.0 3.0 59 61
r 0.659467 2 3 cbr 1000 ------- 0 2.0 3.0 52 53
+ 0.66 2 3 cbr 1000 ------- 0 2.0 3.0 60 62
- 0.66 2 3 cbr 1000 ------- 0 2.0 3.0 60 62
r 0.662133 2 3 cbr 1000 ------- 0 2.0 3.0 53 55
+ 0.662667 2 3 cbr 1000 ------- 0 2.0 3.0 61 63
- 0.662667 2 3 cbr 1000 ------- 0 2.0 3.0 61 63
r 0.6648 2 3 cbr 1000 ------- 0 2.0 3.0 54 56
+ 0.665333 2 3 cbr 1000 ------- 0 2.0 3.0 62 64
- 0.665333 2 3 cbr 1000 ------- 0 2.0 3.0 62 64
r 0.667467 2 3 cbr 1000 ------- 0 2.0 3.0 55 57
+ 0.668 2 3 cbr 1000 ------- 0 2.0 3.0 63 65
- 0.668 2 3 cbr 1000 ------- 0 2.0 3.0 63 65
r 0.670133 2 3 cbr 1000 ------- 0 2.0 3.0 56 58
r 0.670261 3 2 ack 40 ------- 1 4.0 0.0 0 54
+ 0.670261 2 0 ack 40 ------- 1 4.0 0.0 0 54
- 0.670261 2 0 ack 40 ------- 1 4.0 0.0 0 54
+ 0.670667 2 3 cbr 1000 ------- 0 2.0 3.0 64 66
- 0.670667 2 3 cbr 1000 ------- 0 2.0 3.0 64 66
r 0.6728 2 3 cbr 1000 ------- 0 2.0 3.0 57 59
+ 0.673333 2 3 cbr 1000 ------- 0 2.0 3.0 65 67
- 0.673333 2 3 cbr 1000 ------- 0 2.0 3.0 65 67
r 0.675467 2 3 cbr 1000 ------- 0 2.0 3.0 58 60
+ 0.676 2 3 cbr 1000 ------- 0 2.0 3.0 66 68
- 0.676 2 3 cbr 1000 ------- 0 2.0 3.0 66 68
r 0.678133 2 3 cbr 1000 ------- 0 2.0 3.0 59 61
+ 0.678667 2 3 cbr 1000 ------- 0 2.0 3.0 67 69
- 0.678667 2 3 cbr 1000 ------- 0 2.0 3.0 67 69
r 0.680293 2 0 ack 40 ------- 1 4.0 0.0 0 54
+ 0.680293 0 2 tcp 1040 ------- 1 0.0 4.0 1 70
- 0.680293 0 2 tcp 1040 ------- 1 0.0 4.0 1 70
+ 0.680293 0 2 tcp 1040 ------- 1 0.0 4.0 2 71
r 0.6808 2 3 cbr 1000 ------- 0 2.0 3.0 60 62
- 0.681125 0 2 tcp 1040 ------- 1 0.0 4.0 2 71
+ 0.681333 2 3 cbr 1000 ------- 0 2.0 3.0 68 72
- 0.681333 2 3 cbr 1000 ------- 0 2.0 3.0 68 72
r 0.683467 2 3 cbr 1000 ------- 0 2.0 3.0 61 63
+ 0.684 2 3 cbr 1000 ------- 0 2.0 3.0 69 73
- 0.684 2 3 cbr 1000 ------- 0 2.0 3.0 69 73
r 0.686133 2 3 cbr 1000 ------- 0 2.0 3.0 62 64
+ 0.686667 2 3 cbr 1000 ------- 0 2.0 3.0 70 74
- 0.686667 2 3 cbr 1000 ------- 0 2.0 3.0 70 74
r 0.6888 2 3 cbr 1000 ------- 0 2.0 3.0 63 65
+ 0.689333 2 3 cbr 1000 ------- 0 2.0 3.0 71 75
- 0.689333 2 3 cbr 1000 ------- 0 2.0 3.0 71 75
r 0.691125 0 2 tcp 1040 ------- 1 0.0 4.0 1 70
+ 0.691125 2 3 tcp 1040 ------- 1 0.0 4.0 1 70
- 0.691125 2 3 tcp 1040 ------- 1 0.0 4.0 1 70
r 0.691467 2 3 cbr 1000 ------- 0 2.0 3.0 64 66
r 0.691957 0 2 tcp 1040 ------- 1 0.0 4.0 2 71
+ 0.691957 2 3 tcp 1040 ------- 1 0.0 4.0 2 71
- 0.691957 2 3 tcp 1040 ------- 1 0.0 4.0 2 71
+ 0.692 2 3 cbr 1000 ------- 0 2.0 3.0 72 76
- 0.692789 2 3 cbr 1000 ------- 0 2.0 3.0 72 76
r 0.694133 2 3 cbr 1000 ------- 0 2.0 3.0 65 67
+ 0.694667 2 3 cbr 1000 ------- 0 2.0 3.0 73 77
- 0.694667 2 3 cbr 1000 ------- 0 2.0 3.0 73 77
r 0.6968 2 3 cbr 1000 ------- 0 2.0 3.0 66 68
+ 0.697333 2 3 cbr 1000 ------- 0 2.0 3.0 74 78
- 0.697333 2 3 cbr 1000 ------- 0 2.0 3.0 74 78
r 0.699467 2 3 cbr 1000 ------- 0 2.0 3.0 67 69
+ 0.7 2 3 cbr 1000 ------- 0 2.0 3.0 75 79
- 0.7 2 3 cbr 1000 ------- 0 2.0 3.0 75 79
r 0.702133 2 3 cbr 1000 ------- 0 2.0 3.0 68 72
+ 0.702667 2 3 cbr 1000 ------- 0 2.0 3.0 76 80
- 0.702667 2 3 cbr 1000 ------- 0 2.0 3.0 76 80
r 0.7048 2 3 cbr 1000 ------- 0 2.0 3.0 69 73
+ 0.705333 2 3 cbr 1000 ------- 0 2.0 3.0 77 81
- 0.705333 2 3 cbr 1000 ------- 0 2.0 3.0 77 81
r 0.707467 2 3 cbr 1000 ------- 0 2.0 3.0 70 74
+ 0.708 2 3 cbr 1000 ------- 0 2.0 3.0 78 82
- 0.708 2 3 cbr 1000 ------- 0 2.0 3.0 78 82
r 0.710133 2 3 cbr 1000 ------- 0 2.0 3.0 71 75
+ 0.710667 2 3 cbr 1000 ------- 0 2.0 3.0 79 83
- 0.710667 2 3 cbr 1000 ------- 0 2.0 3.0 79 83
r 0.711957 2 3 tcp 1040 ------- 1 0.0 4.0 1 70
+ 0.711957 3 4 tcp 1040 ------- 1 0.0 4.0 1 70
- 0.711957 3 4 tcp 1040 ------- 1 0.0 4.0 1 70
r 0.712789 2 3 tcp 1040 ------- 1 0.0 4.0 2 71
+ 0.712789 3 4 tcp 1040 ------- 1 0.0 4.0 2 71
- 0.712789 3 4 tcp 1040 ------- 1 0.0 4.0 2 71
+ 0.713333 2 3 cbr 1000 ------- 0 2.0 3.0 80 84
- 0.713333 2 3 cbr 1000 ------- 0 2.0 3.0 80 84
r 0.713589 2 3 cbr 1000 ------- 0 2.0 3.0 72 76
r 0.715467 2 3 cbr 1000 ------- 0 2.0 3.0 73 77
+ 0.716 2 3 cbr 1000 ------- 0 2.0 3.0 81 85
- 0.716 2 3 cbr 1000 ------- 0 2.0 3.0 81 85
r 0.718133 2 3 cbr 1000 ------- 0 2.0 3.0 74 78
+ 0.718667 2 3 cbr 1000 ------- 0 2.0 3.0 82 86
- 0.718667 2 3 cbr 1000 ------- 0 2.0 3.0 82 86
r 0.7208 2 3 cbr 1000 ------- 0 2.0 3.0 75 79
+ 0.721333 2 3 cbr 1000 ------- 0 2.0 3.0 83 87
- 0.721333 2 3 cbr 1000 ------- 0 2.0 3.0 83 87
r 0.722789 3 4 tcp 1040 ------- 1 0.0 4.0 1 70
+ 0.722789 4 3 ack 40 ------- 1 4.0 0.0 1 88
- 0.722789 4 3 ack 40 ------- 1 4.0 0.0 1 88
r 0.723467 2 3 cbr 1000 ------- 0 2.0 3.0 76 80
r 0.723621 3 4 tcp 1040 ------- 1 0.0 4.0 2 71
+ 0.723621 4 3 ack 40 ------- 1 4.0 0.0 2 89
- 0.723621 4 3 ack 40 ------- 1 4.0 0.0 2 89
+ 0.724 2 3 cbr 1000 ------- 0 2.0 3.0 84 90
- 0.724 2 3 cbr 1000 ------- 0 2.0 3.0 84 90
r 0.726133 2 3 cbr 1000 ------- 0 2.0 3.0 77 81
+ 0.726667 2 3 cbr 1000 ------- 0 2.0 3.0 85 91
- 0.726667 2 3 cbr 1000 ------- 0 2.0 3.0 85 91
r 0.7288 2 3 cbr 1000 ------- 0 2.0 3.0 78 82
+ 0.729333 2 3 cbr 1000 ------- 0 2.0 3.0 86 92
- 0.729333 2 3 cbr 1000 ------- 0 2.0 3.0 86 92
r 0.731467 2 3 cbr 1000 ------- 0 2.0 3.0 79 83
+ 0.732 2 3 cbr 1000 ------- 0 2.0 3.0 87 93
- 0.732 2 3 cbr 1000 ------- 0 2.0 3.0 87 93
r 0.732821 4 3 ack 40 ------- 1 4.0 0.0 1 88
+ 0.732821 3 2 ack 40 ------- 1 4.0 0.0 1 88
- 0.732821 3 2 ack 40 ------- 1 4.0 0.0 1 88
r 0.733653 4 3 ack 40 ------- 1 4.0 0.0 2 89
+ 0.733653 3 2 ack 40 ------- 1 4.0 0.0 2 89
- 0.733653 3 2 ack 40 ------- 1 4.0 0.0 2 89
r 0.734133 2 3 cbr 1000 ------- 0 2.0 3.0 80 84
+ 0.734667 2 3 cbr 1000 ------- 0 2.0 3.0 88 94
- 0.734667 2 3 cbr 1000 ------- 0 2.0 3.0 88 94
r 0.7368 2 3 cbr 1000 ------- 0 2.0 3.0 81 85
+ 0.737333 2 3 cbr 1000 ------- 0 2.0 3.0 89 95
- 0.737333 2 3 cbr 1000 ------- 0 2.0 3.0 89 95
r 0.739467 2 3 cbr 1000 ------- 0 2.0 3.0 82 86
+ 0.74 2 3 cbr 1000 ------- 0 2.0 3.0 90 96
- 0.74 2 3 cbr 1000 ------- 0 2.0 3.0 90 96
r 0.742133 2 3 cbr 1000 ------- 0 2.0 3.0 83 87
+ 0.742667 2 3 cbr 1000 ------- 0 2.0 3.0 91 97
- 0.742667 2 3 cbr 1000 ------- 0 2.0 3.0 91 97
r 0.7448 2 3 cbr 1000 ------- 0 2.0 3.0 84 90
+ 0.745333 2 3 cbr 1000 ------- 0 2.0 3.0 92 98
- 0.745333 2 3 cbr 1000 ------- 0 2.0 3.0 92 98
r 0.747467 2 3 cbr 1000 ------- 0 2.0 3.0 85 91
+ 0.748 2 3 cbr 1000 ------- 0 2.0 3.0 93 99
- 0.748 2 3 cbr 1000 ------- 0 2.0 3.0 93 99
r 0.750133 2 3 cbr 1000 ------- 0 2.0 3.0 86 92
+ 0.750667 2 3 cbr 1000 ------- 0 2.0 3.0 94 100
- 0.750667 2 3 cbr 1000 ------- 0 2.0 3.0 94 100
r 0.7528 2 3 cbr 1000 ------- 0 2.0 3.0 87 93
r 0.752853 3 2 ack 40 ------- 1 4.0 0.0 1 88
+ 0.752853 2 0 ack 40 ------- 1 4.0 0.0 1 88
- 0.752853 2 0 ack 40 ------- 1 4.0 0.0 1 88
+ 0.753333 2 3 cbr 1000 ------- 0 2.0 3.0 95 101
- 0.753333 2 3 cbr 1000 ------- 0 2.0 3.0 95 101
r 0.753685 3 2 ack 40 ------- 1 4.0 0.0 2 89
+ 0.753685 2 0 ack 40 ------- 1 4.0 0.0 2 89
- 0.753685 2 0 ack 40 ------- 1 4.0 0.0 2 89
r 0.755467 2 3 cbr 1000 ------- 0 2.0 3.0 88 94
+ 0.756 2 3 cbr 1000 ------- 0 2.0 3.0 96 102
- 0.756 2 3 cbr 1000 ------- 0 2.0 3.0 96 102
r 0.758133 2 3 cbr 1000 ------- 0 2.0 3.0 89 95
+ 0.758667 2 3 cbr 1000 ------- 0 2.0 3.0 97 103
- 0.758667 2 3 cbr 1000 ------- 0 2.0 3.0 97 103
r 0.7608 2 3 cbr 1000 ------- 0 2.0 3.0 90 96
+ 0.761333 2 3 cbr 1000 ------- 0 2.0 3.0 98 104
- 0.761333 2 3 cbr 1000 ------- 0 2.0 3.0 98 104
r 0.762885 2 0 ack 40 ------- 1 4.0 0.0 1 88
+ 0.762885 0 2 tcp 1040 ------- 1 0.0 4.0 3 105
- 0.762885 0 2 tcp 1040 ------- 1 0.0 4.0 3 105
+ 0.762885 0 2 tcp 1040 ------- 1 0.0 4.0 4 106
r 0.763467 2 3 cbr 1000 ------- 0 2.0 3.0 91 97
r 0.763717 2 0 ack 40 ------- 1 4.0 0.0 2 89
+ 0.763717 0 2 tcp 1040 ------- 1 0.0 4.0 5 107
+ 0.763717 0 2 tcp 1040 ------- 1 0.0 4.0 6 108
- 0.763717 0 2 tcp 1040 ------- 1 0.0 4.0 4 106
+ 0.764 2 3 cbr 1000 ------- 0 2.0 3.0 99 109
- 0.764 2 3 cbr 1000 ------- 0 2.0 3.0 99 109
- 0.764549 0 2 tcp 1040 ------- 1 0.0 4.0 5 107
- 0.765381 0 2 tcp 1040 ------- 1 0.0 4.0 6 108
r 0.766133 2 3 cbr 1000 ------- 0 2.0 3.0 92 98
+ 0.766667 2 3 cbr 1000 ------- 0 2.0 3.0 100 110
- 0.766667 2 3 cbr 1000 ------- 0 2.0 3.0 100 110
r 0.7688 2 3 cbr 1000 ------- 0 2.0 3.0 93 99
+ 0.769333 2 3 cbr 1000 ------- 0 2.0 3.0 101 111
- 0.769333 2 3 cbr 1000 ------- 0 2.0 3.0 101 111
r 0.771467 2 3 cbr 1000 ------- 0 2.0 3.0 94 100
+ 0.772 2 3 cbr 1000 ------- 0 2.0 3.0 102 112
- 0.772 2 3 cbr 1000 ------- 0 2.0 3.0 102 112
r 0.773717 0 2 tcp 1040 ------- 1 0.0 4.0 3 105
+ 0.773717 2 3 tcp 1040 ------- 1 0.0 4.0 3 105
- 0.773717 2 3 tcp 1040 ------- 1 0.0 4.0 3 105
r 0.774133 2 3 cbr 1000 ------- 0 2.0 3.0 95 101
r 0.774549 0 2 tcp 1040 ------- 1 0.0 4.0 4 106
+ 0.774549 2 3 tcp 1040 ------- 1 0.0 4.0 4 106
- 0.774549 2 3 tcp 1040 ------- 1 0.0 4.0 4 106
+ 0.774667 2 3 cbr 1000 ------- 0 2.0 3.0 103 113
r 0.775381 0 2 tcp 1040 ------- 1 0.0 4.0 5 107
+ 0.775381 2 3 tcp 1040 ------- 1 0.0 4.0 5 107
- 0.775381 2 3 cbr 1000 ------- 0 2.0 3.0 103 113
- 0.776181 2 3 tcp 1040 ------- 1 0.0 4.0 5 107
r 0.776213 0 2 tcp 1040 ------- 1 0.0 4.0 6 108
+ 0.776213 2 3 tcp 1040 ------- 1 0.0 4.0 6 108
r 0.7768 2 3 cbr 1000 ------- 0 2.0 3.0 96 102
- 0.777013 2 3 tcp 1040 ------- 1 0.0 4.0 6 108
+ 0.777333 2 3 cbr 1000 ------- 0 2.0 3.0 104 114
- 0.777845 2 3 cbr 1000 ------- 0 2.0 3.0 104 114
r 0.779467 2 3 cbr 1000 ------- 0 2.0 3.0 97 103
+ 0.78 2 3 cbr 1000 ------- 0 2.0 3.0 105 115
- 0.78 2 3 cbr 1000 ------- 0 2.0 3.0 105 115
r 0.782133 2 3 cbr 1000 ------- 0 2.0 3.0 98 104
+ 0.782667 2 3 cbr 1000 ------- 0 2.0 3.0 106 116
- 0.782667 2 3 cbr 1000 ------- 0 2.0 3.0 106 116
r 0.7848 2 3 cbr 1000 ------- 0 2.0 3.0 99 109
+ 0.785333 2 3 cbr 1000 ------- 0 2.0 3.0 107 117
- 0.785333 2 3 cbr 1000 ------- 0 2.0 3.0 107 117
r 0.787467 2 3 cbr 1000 ------- 0 2.0 3.0 100 110
+ 0.788 2 3 cbr 1000 ------- 0 2.0 3.0 108 118
- 0.788 2 3 cbr 1000 ------- 0 2.0 3.0 108 118
r 0.790133 2 3 cbr 1000 ------- 0 2.0 3.0 101 111
+ 0.790667 2 3 cbr 1000 ------- 0 2.0 3.0 109 119
- 0.790667 2 3 cbr 1000 ------- 0 2.0 3.0 109 119
r 0.7928 2 3 cbr 1000 ------- 0 2.0 3.0 102 112
+ 0.793333 2 3 cbr 1000 ------- 0 2.0 3.0 110 120
- 0.793333 2 3 cbr 1000 ------- 0 2.0 3.0 110 120
r 0.794549 2 3 tcp 1040 ------- 1 0.0 4.0 3 105
+ 0.794549 3 4 tcp 1040 ------- 1 0.0 4.0 3 105
- 0.794549 3 4 tcp 1040 ------- 1 0.0 4.0 3 105
r 0.795381 2 3 tcp 1040 ------- 1 0.0 4.0 4 106
+ 0.795381 3 4 tcp 1040 ------- 1 0.0 4.0 4 106
- 0.795381 3 4 tcp 1040 ------- 1 0.0 4.0 4 106
+ 0.796 2 3 cbr 1000 ------- 0 2.0 3.0 111 121
- 0.796 2 3 cbr 1000 ------- 0 2.0 3.0 111 121
r 0.796181 2 3 cbr 1000 ------- 0 2.0 3.0 103 113
r 0.797013 2 3 tcp 1040 ------- 1 0.0 4.0 5 107
+ 0.797013 3 4 tcp 1040 ------- 1 0.0 4.0 5 107
- 0.797013 3 4 tcp 1040 ------- 1 0.0 4.0 5 107
r 0.797845 2 3 tcp 1040 ------- 1 0.0 4.0 6 108
+ 0.797845 3 4 tcp 1040 ------- 1 0.0 4.0 6 108
- 0.797845 3 4 tcp 1040 ------- 1 0.0 4.0 6 108
r 0.798645 2 3 cbr 1000 ------- 0 2.0 3.0 104 114
+ 0.798667 2 3 cbr 1000 ------- 0 2.0 3.0 112 122
- 0.798667 2 3 cbr 1000 ------- 0 2.0 3.0 112 122
r 0.8008 2 3 cbr 1000 ------- 0 2.0 3.0 105 115
+ 0.801333 2 3 cbr 1000 ------- 0 2.0 3.0 113 123
- 0.801333 2 3 cbr 1000 ------- 0 2.0 3.0 113 123
r 0.803467 2 3 cbr 1000 ------- 0 2.0 3.0 106 116
+ 0.804 2 3 cbr 1000 ------- 0 2.0 3.0 114 124
- 0.804 2 3 cbr 1000 ------- 0 2.0 3.0 114 124
r 0.805381 3 4 tcp 1040 ------- 1 0.0 4.0 3 105
+ 0.805381 4 3 ack 40 ------- 1 4.0 0.0 3 125
- 0.805381 4 3 ack 40 ------- 1 4.0 0.0 3 125
r 0.806133 2 3 cbr 1000 ------- 0 2.0 3.0 107 117
r 0.806213 3 4 tcp 1040 ------- 1 0.0 4.0 4 106
+ 0.806213 4 3 ack 40 ------- 1 4.0 0.0 4 126
- 0.806213 4 3 ack 40 ------- 1 4.0 0.0 4 126
+ 0.806667 2 3 cbr 1000 ------- 0 2.0 3.0 115 127
- 0.806667 2 3 cbr 1000 ------- 0 2.0 3.0 115 127
r 0.807845 3 4 tcp 1040 ------- 1 0.0 4.0 5 107
+ 0.807845 4 3 ack 40 ------- 1 4.0 0.0 5 128
- 0.807845 4 3 ack 40 ------- 1 4.0 0.0 5 128
r 0.808677 3 4 tcp 1040 ------- 1 0.0 4.0 6 108
+ 0.808677 4 3 ack 40 ------- 1 4.0 0.0 6 129
- 0.808677 4 3 ack 40 ------- 1 4.0 0.0 6 129
r 0.8088 2 3 cbr 1000 ------- 0 2.0 3.0 108 118
+ 0.809333 2 3 cbr 1000 ------- 0 2.0 3.0 116 130
- 0.809333 2 3 cbr 1000 ------- 0 2.0 3.0 116 130
r 0.811467 2 3 cbr 1000 ------- 0 2.0 3.0 109 119
+ 0.812 2 3 cbr 1000 ------- 0 2.0 3.0 117 131
- 0.812 2 3 cbr 1000 ------- 0 2.0 3.0 117 131
r 0.814133 2 3 cbr 1000 ------- 0 2.0 3.0 110 120
+ 0.814667 2 3 cbr 1000 ------- 0 2.0 3.0 118 132
- 0.814667 2 3 cbr 1000 ------- 0 2.0 3.0 118 132
r 0.815413 4 3 ack 40 ------- 1 4.0 0.0 3 125
+ 0.815413 3 2 ack 40 ------- 1 4.0 0.0 3 125
- 0.815413 3 2 ack 40 ------- 1 4.0 0.0 3 125
r 0.816245 4 3 ack 40 ------- 1 4.0 0.0 4 126
+ 0.816245 3 2 ack 40 ------- 1 4.0 0.0 4 126
- 0.816245 3 2 ack 40 ------- 1 4.0 0.0 4 126
r 0.8168 2 3 cbr 1000 ------- 0 2.0 3.0 111 121
+ 0.817333 2 3 cbr 1000 ------- 0 2.0 3.0 119 133
- 0.817333 2 3 cbr 1000 ------- 0 2.0 3.0 119 133
r 0.817877 4 3 ack 40 ------- 1 4.0 0.0 5 128
+ 0.817877 3 2 ack 40 ------- 1 4.0 0.0 5 128
- 0.817877 3 2 ack 40 ------- 1 4.0 0.0 5 128
r 0.818709 4 3 ack 40 ------- 1 4.0 0.0 6 129
+ 0.818709 3 2 ack 40 ------- 1 4.0 0.0 6 129
- 0.818709 3 2 ack 40 ------- 1 4.0 0.0 6 129
r 0.819467 2 3 cbr 1000 ------- 0 2.0 3.0 112 122
+ 0.82 2 3 cbr 1000 ------- 0 2.0 3.0 120 134
- 0.82 2 3 cbr 1000 ------- 0 2.0 3.0 120 134
r 0.822133 2 3 cbr 1000 ------- 0 2.0 3.0 113 123
+ 0.822667 2 3 cbr 1000 ------- 0 2.0 3.0 121 135
- 0.822667 2 3 cbr 1000 ------- 0 2.0 3.0 121 135
r 0.8248 2 3 cbr 1000 ------- 0 2.0 3.0 114 124
+ 0.825333 2 3 cbr 1000 ------- 0 2.0 3.0 122 136
- 0.825333 2 3 cbr 1000 ------- 0 2.0 3.0 122 136
r 0.827467 2 3 cbr 1000 ------- 0 2.0 3.0 115 127
+ 0.828 2 3 cbr 1000 ------- 0 2.0 3.0 123 137
- 0.828 2 3 cbr 1000 ------- 0 2.0 3.0 123 137
r 0.830133 2 3 cbr 1000 ------- 0 2.0 3.0 116 130
+ 0.830667 2 3 cbr 1000 ------- 0 2.0 3.0 124 138
- 0.830667 2 3 cbr 1000 ------- 0 2.0 3.0 124 138
r 0.8328 2 3 cbr 1000 ------- 0 2.0 3.0 117 131
+ 0.833333 2 3 cbr 1000 ------- 0 2.0 3.0 125 139
- 0.833333 2 3 cbr 1000 ------- 0 2.0 3.0 125 139
r 0.835445 3 2 ack 40 ------- 1 4.0 0.0 3 125
+ 0.835445 2 0 ack 40 ------- 1 4.0 0.0 3 125
- 0.835445 2 0 ack 40 ------- 1 4.0 0.0 3 125
r 0.835467 2 3 cbr 1000 ------- 0 2.0 3.0 118 132
+ 0.836 2 3 cbr 1000 ------- 0 2.0 3.0 126 140
- 0.836 2 3 cbr 1000 ------- 0 2.0 3.0 126 140
r 0.836277 3 2 ack 40 ------- 1 4.0 0.0 4 126
+ 0.836277 2 0 ack 40 ------- 1 4.0 0.0 4 126
- 0.836277 2 0 ack 40 ------- 1 4.0 0.0 4 126
r 0.837909 3 2 ack 40 ------- 1 4.0 0.0 5 128
+ 0.837909 2 0 ack 40 ------- 1 4.0 0.0 5 128
- 0.837909 2 0 ack 40 ------- 1 4.0 0.0 5 128
r 0.838133 2 3 cbr 1000 ------- 0 2.0 3.0 119 133
+ 0.838667 2 3 cbr 1000 ------- 0 2.0 3.0 127 141
- 0.838667 2 3 cbr 1000 ------- 0 2.0 3.0 127 141
r 0.838741 3 2 ack 40 ------- 1 4.0 0.0 6 129
+ 0.838741 2 0 ack 40 ------- 1 4.0 0.0 6 129
- 0.838741 2 0 ack 40 ------- 1 4.0 0.0 6 129
r 0.8408 2 3 cbr 1000 ------- 0 2.0 3.0 120 134
+ 0.841333 2 3 cbr 1000 ------- 0 2.0 3.0 128 142
- 0.841333 2 3 cbr 1000 ------- 0 2.0 3.0 128 142
r 0.843467 2 3 cbr 1000 ------- 0 2.0 3.0 121 135
+ 0.844 2 3 cbr 1000 ------- 0 2.0 3.0 129 143
- 0.844 2 3 cbr 1000 ------- 0 2.0 3.0 129 143
r 0.845477 2 0 ack 40 ------- 1 4.0 0.0 3 125
+ 0.845477 0 2 tcp 1040 ------- 1 0.0 4.0 7 144
- 0.845477 0 2 tcp 1040 ------- 1 0.0 4.0 7 144
+ 0.845477 0 2 tcp 1040 ------- 1 0.0 4.0 8 145
r 0.846133 2 3 cbr 1000 ------- 0 2.0 3.0 122 136
r 0.846309 2 0 ack 40 ------- 1 4.0 0.0 4 126
+ 0.846309 0 2 tcp 1040 ------- 1 0.0 4.0 9 146
+ 0.846309 0 2 tcp 1040 ------- 1 0.0 4.0 10 147
- 0.846309 0 2 tcp 1040 ------- 1 0.0 4.0 8 145
+ 0.846667 2 3 cbr 1000 ------- 0 2.0 3.0 130 148
- 0.846667 2 3 cbr 1000 ------- 0 2.0 3.0 130 148
- 0.847141 0 2 tcp 1040 ------- 1 0.0 4.0 9 146
r 0.847941 2 0 ack 40 ------- 1 4.0 0.0 5 128
+ 0.847941 0 2 tcp 1040 ------- 1 0.0 4.0 11 149
+ 0.847941 0 2 tcp 1040 ------- 1 0.0 4.0 12 150
- 0.847973 0 2 tcp 1040 ------- 1 0.0 4.0 10 147
r 0.848773 2 0 ack 40 ------- 1 4.0 0.0 6 129
+ 0.848773 0 2 tcp 1040 ------- 1 0.0 4.0 13 151
+ 0.848773 0 2 tcp 1040 ------- 1 0.0 4.0 14 152
r 0.8488 2 3 cbr 1000 ------- 0 2.0 3.0 123 137
- 0.848805 0 2 tcp 1040 ------- 1 0.0 4.0 11 149
+ 0.849333 2 3 cbr 1000 ------- 0 2.0 3.0 131 153
- 0.849333 2 3 cbr 1000 ------- 0 2.0 3.0 131 153
- 0.849637 0 2 tcp 1040 ------- 1 0.0 4.0 12 150
- 0.850469 0 2 tcp 1040 ------- 1 0.0 4.0 13 151
- 0.851301 0 2 tcp 1040 ------- 1 0.0 4.0 14 152
r 0.851467 2 3 cbr 1000 ------- 0 2.0 3.0 124 138
+ 0.852 2 3 cbr 1000 ------- 0 2.0 3.0 132 154
- 0.852 2 3 cbr 1000 ------- 0 2.0 3.0 132 154
r 0.854133 2 3 cbr 1000 ------- 0 2.0 3.0 125 139
+ 0.854667 2 3 cbr 1000 ------- 0 2.0 3.0 133 155
- 0.854667 2 3 cbr 1000 ------- 0 2.0 3.0 133 155
r 0.856309 0 2 tcp 1040 ------- 1 0.0 4.0 7 144
+ 0.856309 2 3 tcp 1040 ------- 1 0.0 4.0 7 144
- 0.856309 2 3 tcp 1040 ------- 1 0.0 4.0 7 144
r 0.8568 2 3 cbr 1000 ------- 0 2.0 3.0 126 140
r 0.857141 0 2 tcp 1040 ------- 1 0.0 4.0 8 145
+ 0.857141 2 3 tcp 1040 ------- 1 0.0 4.0 8 145
- 0.857141 2 3 tcp 1040 ------- 1 0.0 4.0 8 145
+ 0.857333 2 3 cbr 1000 ------- 0 2.0 3.0 134 156
r 0.857973 0 2 tcp 1040 ------- 1 0.0 4.0 9 146
+ 0.857973 2 3 tcp 1040 ------- 1 0.0 4.0 9 146
- 0.857973 2 3 cbr 1000 ------- 0 2.0 3.0 134 156
- 0.858773 2 3 tcp 1040 ------- 1 0.0 4.0 9 146
r 0.858805 0 2 tcp 1040 ------- 1 0.0 4.0 10 147
+ 0.858805 2 3 tcp 1040 ------- 1 0.0 4.0 10 147
r 0.859467 2 3 cbr 1000 ------- 0 2.0 3.0 127 141
- 0.859605 2 3 tcp 1040 ------- 1 0.0 4.0 10 147
r 0.859637 0 2 tcp 1040 ------- 1 0.0 4.0 11 149
+ 0.859637 2 3 tcp 1040 ------- 1 0.0 4.0 11 149
+ 0.86 2 3 cbr 1000 ------- 0 2.0 3.0 135 157
- 0.860437 2 3 tcp 1040 ------- 1 0.0 4.0 11 149
r 0.860469 0 2 tcp 1040 ------- 1 0.0 4.0 12 150
+ 0.860469 2 3 tcp 1040 ------- 1 0.0 4.0 12 150
- 0.861269 2 3 cbr 1000 ------- 0 2.0 3.0 135 157
r 0.861301 0 2 tcp 1040 ------- 1 0.0 4.0 13 151
+ 0.861301 2 3 tcp 1040 ------- 1 0.0 4.0 13 151
- 0.862069 2 3 tcp 1040 ------- 1 0.0 4.0 12 150
r 0.862133 0 2 tcp 1040 ------- 1 0.0 4.0 14 152
+ 0.862133 2 3 tcp 1040 ------- 1 0.0 4.0 14 152
r 0.862133 2 3 cbr 1000 ------- 0 2.0 3.0 128 142
+ 0.862667 2 3 cbr 1000 ------- 0 2.0 3.0 136 158
- 0.862901 2 3 tcp 1040 ------- 1 0.0 4.0 13 151
- 0.863733 2 3 tcp 1040 ------- 1 0.0 4.0 14 152
- 0.864565 2 3 cbr 1000 ------- 0 2.0 3.0 136 158
r 0.8648 2 3 cbr 1000 ------- 0 2.0 3.0 129 143
+ 0.865333 2 3 cbr 1000 ------- 0 2.0 3.0 137 159
- 0.865365 2 3 cbr 1000 ------- 0 2.0 3.0 137 159
r 0.867467 2 3 cbr 1000 ------- 0 2.0 3.0 130 148
+ 0.868 2 3 cbr 1000 ------- 0 2.0 3.0 138 160
- 0.868 2 3 cbr 1000 ------- 0 2.0 3.0 138 160
r 0.870133 2 3 cbr 1000 ------- 0 2.0 3.0 131 153
+ 0.870667 2 3 cbr 1000 ------- 0 2.0 3.0 139 161
- 0.870667 2 3 cbr 1000 ------- 0 2.0 3.0 139 161
r 0.8728 2 3 cbr 1000 ------- 0 2.0 3.0 132 154
+ 0.873333 2 3 cbr 1000 ------- 0 2.0 3.0 140 162
- 0.873333 2 3 cbr 1000 ------- 0 2.0 3.0 140 162
r 0.875467 2 3 cbr 1000 ------- 0 2.0 3.0 133 155
+ 0.876 2 3 cbr 1000 ------- 0 2.0 3.0 141 163
- 0.876 2 3 cbr 1000 ------- 0 2.0 3.0 141 163
r 0.877141 2 3 tcp 1040 ------- 1 0.0 4.0 7 144
+ 0.877141 3 4 tcp 1040 ------- 1 0.0 4.0 7 144
- 0.877141 3 4 tcp 1040 ------- 1 0.0 4.0 7 144
r 0.877973 2 3 tcp 1040 ------- 1 0.0 4.0 8 145
+ 0.877973 3 4 tcp 1040 ------- 1 0.0 4.0 8 145
- 0.877973 3 4 tcp 1040 ------- 1 0.0 4.0 8 145
+ 0.878667 2 3 cbr 1000 ------- 0 2.0 3.0 142 164
- 0.878667 2 3 cbr 1000 ------- 0 2.0 3.0 142 164
r 0.878773 2 3 cbr 1000 ------- 0 2.0 3.0 134 156
r 0.879605 2 3 tcp 1040 ------- 1 0.0 4.0 9 146
+ 0.879605 3 4 tcp 1040 ------- 1 0.0 4.0 9 146
- 0.879605 3 4 tcp 1040 ------- 1 0.0 4.0 9 146
r 0.880437 2 3 tcp 1040 ------- 1 0.0 4.0 10 147
+ 0.880437 3 4 tcp 1040 ------- 1 0.0 4.0 10 147
- 0.880437 3 4 tcp 1040 ------- 1 0.0 4.0 10 147
r 0.881269 2 3 tcp 1040 ------- 1 0.0 4.0 11 149
+ 0.881269 3 4 tcp 1040 ------- 1 0.0 4.0 11 149
- 0.881269 3 4 tcp 1040 ------- 1 0.0 4.0 11 149
+ 0.881333 2 3 cbr 1000 ------- 0 2.0 3.0 143 165
- 0.881333 2 3 cbr 1000 ------- 0 2.0 3.0 143 165
r 0.882069 2 3 cbr 1000 ------- 0 2.0 3.0 135 157
r 0.882901 2 3 tcp 1040 ------- 1 0.0 4.0 12 150
+ 0.882901 3 4 tcp 1040 ------- 1 0.0 4.0 12 150
- 0.882901 3 4 tcp 1040 ------- 1 0.0 4.0 12 150
r 0.883733 2 3 tcp 1040 ------- 1 0.0 4.0 13 151
+ 0.883733 3 4 tcp 1040 ------- 1 0.0 4.0 13 151
- 0.883733 3 4 tcp 1040 ------- 1 0.0 4.0 13 151
+ 0.884 2 3 cbr 1000 ------- 0 2.0 3.0 144 166
- 0.884 2 3 cbr 1000 ------- 0 2.0 3.0 144 166
r 0.884565 2 3 tcp 1040 ------- 1 0.0 4.0 14 152
+ 0.884565 3 4 tcp 1040 ------- 1 0.0 4.0 14 152
- 0.884565 3 4 tcp 1040 ------- 1 0.0 4.0 14 152
r 0.885365 2 3 cbr 1000 ------- 0 2.0 3.0 136 158
r 0.886165 2 3 cbr 1000 ------- 0 2.0 3.0 137 159
+ 0.886667 2 3 cbr 1000 ------- 0 2.0 3.0 145 167
- 0.886667 2 3 cbr 1000 ------- 0 2.0 3.0 145 167
r 0.887973 3 4 tcp 1040 ------- 1 0.0 4.0 7 144
+ 0.887973 4 3 ack 40 ------- 1 4.0 0.0 7 168
- 0.887973 4 3 ack 40 ------- 1 4.0 0.0 7 168
r 0.8888 2 3 cbr 1000 ------- 0 2.0 3.0 138 160
r 0.888805 3 4 tcp 1040 ------- 1 0.0 4.0 8 145
+ 0.888805 4 3 ack 40 ------- 1 4.0 0.0 8 169
- 0.888805 4 3 ack 40 ------- 1 4.0 0.0 8 169
+ 0.889333 2 3 cbr 1000 ------- 0 2.0 3.0 146 170
- 0.889333 2 3 cbr 1000 ------- 0 2.0 3.0 146 170
r 0.890437 3 4 tcp 1040 ------- 1 0.0 4.0 9 146
+ 0.890437 4 3 ack 40 ------- 1 4.0 0.0 9 171
- 0.890437 4 3 ack 40 ------- 1 4.0 0.0 9 171