+ 0.5 2 3 cbr 1000 ------- 0 2.0 3.0 0 0
- 0.5 2 3 cbr 1000 ------- 0 2.0 3.0 0 0
+ 0.501143 2 3 cbr 1000 ------- 0 2.0 3.0 1 1
- 0.501143 2 3 cbr 1000 ------- 0 2.0 3.0 1 1
+ 0.502286 2 3 cbr 1000 ------- 0 2.0 3.0 2 2
- 0.502286 2 3 cbr 1000 ------- 0 2.0 3.0 2 2
+ 0.503429 2 3 cbr 1000 ------- 0 2.0 3.0 3 3
- 0.503429 2 3 cbr 1000 ------- 0 2.0 3.0 3 3
+ 0.504571 2 3 cbr 1000 ------- 0 2.0 3.0 4 4
- 0.504571 2 3 cbr 1000 ------- 0 2.0 3.0 4 4
+ 0.505714 2 3 cbr 1000 ------- 0 2.0 3.0 5 5
- 0.505714 2 3 cbr 1000 ------- 0 2.0 3.0 5 5
+ 0.506857 2 3 cbr 1000 ------- 0 2.0 3.0 6 6
- 0.506857 2 3 cbr 1000 ------- 0 2.0 3.0 6 6
+ 0.508 2 3 cbr 1000 ------- 0 2.0 3.0 7 7
- 0.508 2 3 cbr 1000 ------- 0 2.0 3.0 7 7
+ 0.509143 2 3 cbr 1000 ------- 0 2.0 3.0 8 8
- 0.509143 2 3 cbr 1000 ------- 0 2.0 3.0 8 8
+ 0.510286 2 3 cbr 1000 ------- 0 2.0 3.0 9 9
- 0.510286 2 3 cbr 1000 ------- 0 2.0 3.0 9 9
+ 0.511429 2 3 cbr 1000 ------- 0 2.0 3.0 10 10
- 0.511429 2 3 cbr 1000 ------- 0 2.0 3.0 10 10
+ 0.512571 2 3 cbr 1000 ------- 0 2.0 3.0 11 11
- 0.512571 2 3 cbr 1000 ------- 0 2.0 3.0 11 11
+ 0.513714 2 3 cbr 1000 ------- 0 2.0 3.0 12 12
- 0.513714 2 3 cbr 1000 ------- 0 2.0 3.0 12 12
+ 0.514857 2 3 cbr 1000 ------- 0 2.0 3.0 13 13
- 0.514857 2 3 cbr 1000 ------- 0 2.0 3.0 13 13
+ 0.516 2 3 cbr 1000 ------- 0 2.0 3.0 14 14
- 0.516 2 3 cbr 1000 ------- 0 2.0 3.0 14 14
+ 0.517143 2 3 cbr 1000 ------- 0 2.0 3.0 15 15
- 0.517143 2 3 cbr 1000 ------- 0 2.0 3.0 15 15
+ 0.518286 2 3 cbr 1000 ------- 0 2.0 3.0 16 16
- 0.518286 2 3 cbr 1000 ------- 0 2.0 3.0 16 16
+ 0.519429 2 3 cbr 1000 ------- 0 2.0 3.0 17 17
- 0.519429 2 3 cbr 1000 ------- 0 2.0 3.0 17 17
+ 0.520571 2 3 cbr 1000 ------- 0 2.0 3.0 18 18
- 0.520571 2 3 cbr 1000 ------- 0 2.0 3.0 18 18
r 0.5208 2 3 cbr 1000 ------- 0 2.0 3.0 0 0
+ 0.521714 2 3 cbr 1000 ------- 0 2.0 3.0 19 19
- 0.521714 2 3 cbr 1000 ------- 0 2.0 3.0 19 19
r 0.521943 2 3 cbr 1000 ------- 0 2.0 3.0 1 1
+ 0.522857 2 3 cbr 1000 ------- 0 2.0 3.0 20 20
- 0.522857 2 3 cbr 1000 ------- 0 2.0 3.0 20 20
r 0.523086 2 3 cbr 1000 ------- 0 2.0 3.0 2 2
+ 0.524 2 3 cbr 1000 ------- 0 2.0 3.0 21 21
- 0.524 2 3 cbr 1000 ------- 0 2.0 3.0 21 21
r 0.524229 2 3 cbr 1000 ------- 0 2.0 3.0 3 3
+ 0.525143 2 3 cbr 1000 ------- 0 2.0 3.0 22 22
- 0.525143 2 3 cbr 1000 ------- 0 2.0 3.0 22 22
r 0.525371 2 3 cbr 1000 ------- 0 2.0 3.0 4 4
+ 0.526286 2 3 cbr 1000 ------- 0 2.0 3.0 23 23
- 0.526286 2 3 cbr 1000 ------- 0 2.0 3.0 23 23
r 0.526514 2 3 cbr 1000 ------- 0 2.0 3.0 5 5
+ 0.527429 2 3 cbr 1000 ------- 0 2.0 3.0 24 24
- 0.527429 2 3 cbr 1000 ------- 0 2.0 3.0 24 24
r 0.527657 2 3 cbr 1000 ------- 0 2.0 3.0 6 6
+ 0.528571 2 3 cbr 1000 ------- 0 2.0 3.0 25 25
- 0.528571 2 3 cbr 1000 ------- 0 2.0 3.0 25 25
r 0.5288 2 3 cbr 1000 ------- 0 2.0 3.0 7 7
+ 0.529714 2 3 cbr 1000 ------- 0 2.0 3.0 26 26
- 0.529714 2 3 cbr 1000 ------- 0 2.0 3.0 26 26
r 0.529943 2 3 cbr 1000 ------- 0 2.0 3.0 8 8
+ 0.530857 2 3 cbr 1000 ------- 0 2.0 3.0 27 27
- 0.530857 2 3 cbr 1000 ------- 0 2.0 3.0 27 27
r 0.531086 2 3 cbr 1000 ------- 0 2.0 3.0 9 9
+ 0.532 2 3 cbr 1000 ------- 0 2.0 3.0 28 28
- 0.532 2 3 cbr 1000 ------- 0 2.0 3.0 28 28
r 0.532229 2 3 cbr 1000 ------- 0 2.0 3.0 10 10
+ 0.533143 2 3 cbr 1000 ------- 0 2.0 3.0 29 29
- 0.533143 2 3 cbr 1000 ------- 0 2.0 3.0 29 29
r 0.533371 2 3 cbr 1000 ------- 0 2.0 3.0 11 11
+ 0.534286 2 3 cbr 1000 ------- 0 2.0 3.0 30 30
- 0.534286 2 3 cbr 1000 ------- 0 2.0 3.0 30 30
r 0.534514 2 3 cbr 1000 ------- 0 2.0 3.0 12 12
+ 0.535429 2 3 cbr 1000 ------- 0 2.0 3.0 31 31
- 0.535429 2 3 cbr 1000 ------- 0 2.0 3.0 31 31
r 0.535657 2 3 cbr 1000 ------- 0 2.0 3.0 13 13
+ 0.536571 2 3 cbr 1000 ------- 0 2.0 3.0 32 32
- 0.536571 2 3 cbr 1000 ------- 0 2.0 3.0 32 32
r 0.5368 2 3 cbr 1000 ------- 0 2.0 3.0 14 14
+ 0.537714 2 3 cbr 1000 ------- 0 2.0 3.0 33 33
- 0.537714 2 3 cbr 1000 ------- 0 2.0 3.0 33 33
r 0.537943 2 3 cbr 1000 ------- 0 2.0 3.0 15 15
+ 0.538857 2 3 cbr 1000 ------- 0 2.0 3.0 34 34
- 0.538857 2 3 cbr 1000 ------- 0 2.0 3.0 34 34
r 0.539086 2 3 cbr 1000 ------- 0 2.0 3.0 16 16
+ 0.54 2 3 cbr 1000 ------- 0 2.0 3.0 35 35
- 0.54 2 3 cbr 1000 ------- 0 2.0 3.0 35 35
r 0.540229 2 3 cbr 1000 ------- 0 2.0 3.0 17 17
+ 0.541143 2 3 cbr 1000 ------- 0 2.0 3.0 36 36
- 0.541143 2 3 cbr 1000 ------- 0 2.0 3.0 36 36
r 0.541371 2 3 cbr 1000 ------- 0 2.0 3.0 18 18
+ 0.542286 2 3 cbr 1000 ------- 0 2.0 3.0 37 37
- 0.542286 2 3 cbr 1000 ------- 0 2.0 3.0 37 37
r 0.542514 2 3 cbr 1000 ------- 0 2.0 3.0 19 19
+ 0.543429 2 3 cbr 1000 ------- 0 2.0 3.0 38 38
- 0.543429 2 3 cbr 1000 ------- 0 2.0 3.0 38 38
r 0.543657 2 3 cbr 1000 ------- 0 2.0 3.0 20 20
+ 0.544571 2 3 cbr 1000 ------- 0 2.0 3.0 39 39
- 0.544571 2 3 cbr 1000 ------- 0 2.0 3.0 39 39
r 0.5448 2 3 cbr 1000 ------- 0 2.0 3.0 21 21
+ 0.545714 2 3 cbr 1000 ------- 0 2.0 3.0 40 40
- 0.545714 2 3 cbr 1000 ------- 0 2.0 3.0 40 40
r 0.545943 2 3 cbr 1000 ------- 0 2.0 3.0 22 22
+ 0.546857 2 3 cbr 1000 ------- 0 2.0 3.0 41 41
- 0.546857 2 3 cbr 1000 ------- 0 2.0 3.0 41 41
r 0.547086 2 3 cbr 1000 ------- 0 2.0 3.0 23 23
+ 0.548 2 3 cbr 1000 ------- 0 2.0 3.0 42 42
- 0.548 2 3 cbr 1000 ------- 0 2.0 3.0 42 42
r 0.548229 2 3 cbr 1000 ------- 0 2.0 3.0 24 24
+ 0.549143 2 3 cbr 1000 ------- 0 2.0 3.0 43 43
- 0.549143 2 3 cbr 1000 ------- 0 2.0 3.0 43 43
r 0.549371 2 3 cbr 1000 ------- 0 2.0 3.0 25 25
+ 0.550286 2 3 cbr 1000 ------- 0 2.0 3.0 44 44
- 0.550286 2 3 cbr 1000 ------- 0 2.0 3.0 44 44
r 0.550514 2 3 cbr 1000 ------- 0 2.0 3.0 26 26
+ 0.551429 2 3 cbr 1000 ------- 0 2.0 3.0 45 45
- 0.551429 2 3 cbr 1000 ------- 0 2.0 3.0 45 45
r 0.551657 2 3 cbr 1000 ------- 0 2.0 3.0 27 27
+ 0.552571 2 3 cbr 1000 ------- 0 2.0 3.0 46 46
- 0.552571 2 3 cbr 1000 ------- 0 2.0 3.0 46 46
r 0.5528 2 3 cbr 1000 ------- 0 2.0 3.0 28 28
+ 0.553714 2 3 cbr 1000 ------- 0 2.0 3.0 47 47
- 0.553714 2 3 cbr 1000 ------- 0 2.0 3.0 47 47
r 0.553943 2 3 cbr 1000 ------- 0 2.0 3.0 29 29
+ 0.554857 2 3 cbr 1000 ------- 0 2.0 3.0 48 48
- 0.554857 2 3 cbr 1000 ------- 0 2.0 3.0 48 48
r 0.555086 2 3 cbr 1000 ------- 0 2.0 3.0 30 30
+ 0.556 2 3 cbr 1000 ------- 0 2.0 3.0 49 49
- 0.556 2 3 cbr 1000 ------- 0 2.0 3.0 49 49
r 0.556229 2 3 cbr 1000 ------- 0 2.0 3.0 31 31
+ 0.557143 2 3 cbr 1000 ------- 0 2.0 3.0 50 50
- 0.557143 2 3 cbr 1000 ------- 0 2.0 3.0 50 50
r 0.557371 2 3 cbr 1000 ------- 0 2.0 3.0 32 32
+ 0.558286 2 3 cbr 1000 ------- 0 2.0 3.0 51 51
- 0.558286 2 3 cbr 1000 ------- 0 2.0 3.0 51 51
r 0.558514 2 3 cbr 1000 ------- 0 2.0 3.0 33 33
+ 0.559429 2 3 cbr 1000 ------- 0 2.0 3.0 52 52
- 0.559429 2 3 cbr 1000 ------- 0 2.0 3.0 52 52
r 0.559657 2 3 cbr 1000 ------- 0 2.0 3.0 34 34
+ 0.560571 2 3 cbr 1000 ------- 0 2.0 3.0 53 53
- 0.560571 2 3 cbr 1000 ------- 0 2.0 3.0 53 53
r 0.5608 2 3 cbr 1000 ------- 0 2.0 3.0 35 35
+ 0.561714 2 3 cbr 1000 ------- 0 2.0 3.0 54 54
- 0.561714 2 3 cbr 1000 ------- 0 2.0 3.0 54 54
r 0.561943 2 3 cbr 1000 ------- 0 2.0 3.0 36 36
+ 0.562857 2 3 cbr 1000 ------- 0 2.0 3.0 55 55
- 0.562857 2 3 cbr 1000 ------- 0 2.0 3.0 55 55
r 0.563086 2 3 cbr 1000 ------- 0 2.0 3.0 37 37
+ 0.564 2 3 cbr 1000 ------- 0 2.0 3.0 56 56
- 0.564 2 3 cbr 1000 ------- 0 2.0 3.0 56 56
r 0.564229 2 3 cbr 1000 ------- 0 2.0 3.0 38 38
+ 0.565143 2 3 cbr 1000 ------- 0 2.0 3.0 57 57
- 0.565143 2 3 cbr 1000 ------- 0 2.0 3.0 57 57
r 0.565371 2 3 cbr 1000 ------- 0 2.0 3.0 39 39
+ 0.566286 2 3 cbr 1000 ------- 0 2.0 3.0 58 58
- 0.566286 2 3 cbr 1000 ------- 0 2.0 3.0 58 58
r 0.566514 2 3 cbr 1000 ------- 0 2.0 3.0 40 40
+ 0.567429 2 3 cbr 1000 ------- 0 2.0 3.0 59 59
- 0.567429 2 3 cbr 1000 ------- 0 2.0 3.0 59 59
r 0.567657 2 3 cbr 1000 ------- 0 2.0 3.0 41 41
+ 0.568571 2 3 cbr 1000 ------- 0 2.0 3.0 60 60
- 0.568571 2 3 cbr 1000 ------- 0 2.0 3.0 60 60
r 0.5688 2 3 cbr 1000 ------- 0 2.0 3.0 42 42
+ 0.569714 2 3 cbr 1000 ------- 0 2.0 3.0 61 61
- 0.569714 2 3 cbr 1000 ------- 0 2.0 3.0 61 61
r 0.569943 2 3 cbr 1000 ------- 0 2.0 3.0 43 43
+ 0.570857 2 3 cbr 1000 ------- 0 2.0 3.0 62 62
- 0.570857 2 3 cbr 1000 ------- 0 2.0 3.0 62 62
r 0.571086 2 3 cbr 1000 ------- 0 2.0 3.0 44 44
+ 0.572 2 3 cbr 1000 ------- 0 2.0 3.0 63 63
- 0.572 2 3 cbr 1000 ------- 0 2.0 3.0 63 63
r 0.572229 2 3 cbr 1000 ------- 0 2.0 3.0 45 45
+ 0.573143 2 3 cbr 1000 ------- 0 2.0 3.0 64 64
- 0.573143 2 3 cbr 1000 ------- 0 2.0 3.0 64 64
r 0.573371 2 3 cbr 1000 ------- 0 2.0 3.0 46 46
+ 0.574286 2 3 cbr 1000 ------- 0 2.0 3.0 65 65
- 0.574286 2 3 cbr 1000 ------- 0 2.0 3.0 65 65
r 0.574514 2 3 cbr 1000 ------- 0 2.0 3.0 47 47
+ 0.575429 2 3 cbr 1000 ------- 0 2.0 3.0 66 66
- 0.575429 2 3 cbr 1000 ------- 0 2.0 3.0 66 66
r 0.575657 2 3 cbr 1000 ------- 0 2.0 3.0 48 48
+ 0.576571 2 3 cbr 1000 ------- 0 2.0 3.0 67 67
- 0.576571 2 3 cbr 1000 ------- 0 2.0 3.0 67 67
r 0.5768 2 3 cbr 1000 ------- 0 2.0 3.0 49 49
+ 0.577714 2 3 cbr 1000 ------- 0 2.0 3.0 68 68
- 0.577714 2 3 cbr 1000 ------- 0 2.0 3.0 68 68
r 0.577943 2 3 cbr 1000 ------- 0 2.0 3.0 50 50
+ 0.578857 2 3 cbr 1000 ------- 0 2.0 3.0 69 69
- 0.578857 2 3 cbr 1000 ------- 0 2.0 3.0 69 69
r 0.579086 2 3 cbr 1000 ------- 0 2.0 3.0 51 51
+ 0.58 2 3 cbr 1000 ------- 0 2.0 3.0 70 70
- 0.58 2 3 cbr 1000 ------- 0 2.0 3.0 70 70
r 0.580229 2 3 cbr 1000 ------- 0 2.0 3.0 52 52
+ 0.581143 2 3 cbr 1000 ------- 0 2.0 3.0 71 71
- 0.581143 2 3 cbr 1000 ------- 0 2.0 3.0 71 71
r 0.581371 2 3 cbr 1000 ------- 0 2.0 3.0 53 53
+ 0.582286 2 3 cbr 1000 ------- 0 2.0 3.0 72 72
- 0.582286 2 3 cbr 1000 ------- 0 2.0 3.0 72 72
r 0.582514 2 3 cbr 1000 ------- 0 2.0 3.0 54 54
+ 0.583429 2 3 cbr 1000 ------- 0 2.0 3.0 73 73
- 0.583429 2 3 cbr 1000 ------- 0 2.0 3.0 73 73
r 0.583657 2 3 cbr 1000 ------- 0 2.0 3.0 55 55
+ 0.584571 2 3 cbr 1000 ------- 0 2.0 3.0 74 74
- 0.584571 2 3 cbr 1000 ------- 0 2.0 3.0 74 74
r 0.5848 2 3 cbr 1000 ------- 0 2.0 3.0 56 56
+ 0.585714 2 3 cbr 1000 ------- 0 2.0 3.0 75 75
- 0.585714 2 3 cbr 1000 ------- 0 2.0 3.0 75 75
r 0.585943 2 3 cbr 1000 ------- 0 2.0 3.0 57 57
+ 0.586857 2 3 cbr 1000 ------- 0 2.0 3.0 76 76
- 0.586857 2 3 cbr 1000 ------- 0 2.0 3.0 76 76
r 0.587086 2 3 cbr 1000 ------- 0 2.0 3.0 58 58
+ 0.588 2 3 cbr 1000 ------- 0 2.0 3.0 77 77
- 0.588 2 3 cbr 1000 ------- 0 2.0 3.0 77 77
r 0.588229 2 3 cbr 1000 ------- 0 2.0 3.0 59 59
+ 0.589143 2 3 cbr 1000 ------- 0 2.0 3.0 78 78
- 0.589143 2 3 cbr 1000 ------- 0 2.0 3.0 78 78
r 0.589371 2 3 cbr 1000 ------- 0 2.0 3.0 60 60
+ 0.590286 2 3 cbr 1000 ------- 0 2.0 3.0 79 79
- 0.590286 2 3 cbr 1000 ------- 0 2.0 3.0 79 79
r 0.590514 2 3 cbr 1000 ------- 0 2.0 3.0 61 61
+ 0.591429 2 3 cbr 1000 ------- 0 2.0 3.0 80 80
- 0.591429 2 3 cbr 1000 ------- 0 2.0 3.0 80 80
r 0.591657 2 3 cbr 1000 ------- 0 2.0 3.0 62 62
+ 0.592571 2 3 cbr 1000 ------- 0 2.0 3.0 81 81
- 0.592571 2 3 cbr 1000 ------- 0 2.0 3.0 81 81
r 0.5928 2 3 cbr 1000 ------- 0 2.0 3.0 63 63
+ 0.593714 2 3 cbr 1000 ------- 0 2.0 3.0 82 82
- 0.593714 2 3 cbr 1000 ------- 0 2.0 3.0 82 82
r 0.593943 2 3 cbr 1000 ------- 0 2.0 3.0 64 64
+ 0.594857 2 3 cbr 1000 ------- 0 2.0 3.0 83 83
- 0.594857 2 3 cbr 1000 ------- 0 2.0 3.0 83 83
r 0.595086 2 3 cbr 1000 ------- 0 2.0 3.0 65 65
+ 0.596 2 3 cbr 1000 ------- 0 2.0 3.0 84 84
- 0.596 2 3 cbr 1000 ------- 0 2.0 3.0 84 84
r 0.596229 2 3 cbr 1000 ------- 0 2.0 3.0 66 66
+ 0.597143 2 3 cbr 1000 ------- 0 2.0 3.0 85 85
- 0.597143 2 3 cbr 1000 ------- 0 2.0 3.0 85 85
r 0.597371 2 3 cbr 1000 ------- 0 2.0 3.0 67 67
+ 0.598286 2 3 cbr 1000 ------- 0 2.0 3.0 86 86
- 0.598286 2 3 cbr 1000 ------- 0 2.0 3.0 86 86
r 0.598514 2 3 cbr 1000 ------- 0 2.0 3.0 68 68
+ 0.599429 2 3 cbr 1000 ------- 0 2.0 3.0 87 87
- 0.599429 2 3 cbr 1000 ------- 0 2.0 3.0 87 87
r 0.599657 2 3 cbr 1000 ------- 0 2.0 3.0 69 69
+ 0.6 0 2 tcp 1000 ------- 1 0.0 4.0 0 88
- 0.6 0 2 tcp 1000 ------- 1 0.0 4.0 0 88
+ 0.600571 2 3 cbr 1000 ------- 0 2.0 3.0 88 89
- 0.600571 2 3 cbr 1000 ------- 0 2.0 3.0 88 89
r 0.6008 2 3 cbr 1000 ------- 0 2.0 3.0 70 70
+ 0.601714 2 3 cbr 1000 ------- 0 2.0 3.0 89 90
- 0.601714 2 3 cbr 1000 ------- 0 2.0 3.0 89 90
r 0.601943 2 3 cbr 1000 ------- 0 2.0 3.0 71 71
+ 0.602857 2 3 cbr 1000 ------- 0 2.0 3.0 90 91
- 0.602857 2 3 cbr 1000 ------- 0 2.0 3.0 90 91
r 0.603086 2 3 cbr 1000 ------- 0 2.0 3.0 72 72
+ 0.604 2 3 cbr 1000 ------- 0 2.0 3.0 91 92
- 0.604 2 3 cbr 1000 ------- 0 2.0 3.0 91 92
r 0.604229 2 3 cbr 1000 ------- 0 2.0 3.0 73 73
+ 0.605143 2 3 cbr 1000 ------- 0 2.0 3.0 92 93
- 0.605143 2 3 cbr 1000 ------- 0 2.0 3.0 92 93
r 0.605371 2 3 cbr 1000 ------- 0 2.0 3.0 74 74
+ 0.606286 2 3 cbr 1000 ------- 0 2.0 3.0 93 94
- 0.606286 2 3 cbr 1000 ------- 0 2.0 3.0 93 94
r 0.606514 2 3 cbr 1000 ------- 0 2.0 3.0 75 75
+ 0.607429 2 3 cbr 1000 ------- 0 2.0 3.0 94 95
- 0.607429 2 3 cbr 1000 ------- 0 2.0 3.0 94 95
r 0.607657 2 3 cbr 1000 ------- 0 2.0 3.0 76 76
+ 0.608571 2 3 cbr 1000 ------- 0 2.0 3.0 95 96
- 0.608571 2 3 cbr 1000 ------- 0 2.0 3.0 95 96
r 0.6088 2 3 cbr 1000 ------- 0 2.0 3.0 77 77
+ 0.609714 2 3 cbr 1000 ------- 0 2.0 3.0 96 97
- 0.609714 2 3 cbr 1000 ------- 0 2.0 3.0 96 97
r 0.609943 2 3 cbr 1000 ------- 0 2.0 3.0 78 78
r 0.6108 0 2 tcp 1000 ------- 1 0.0 4.0 0 88
+ 0.6108 2 3 tcp 1000 ------- 1 0.0 4.0 0 88
- 0.6108 2 3 tcp 1000 ------- 1 0.0 4.0 0 88
+ 0.610857 2 3 cbr 1000 ------- 0 2.0 3.0 97 98
r 0.611086 2 3 cbr 1000 ------- 0 2.0 3.0 79 79
- 0.6116 2 3 cbr 1000 ------- 0 2.0 3.0 97 98
+ 0.612 2 3 cbr 1000 ------- 0 2.0 3.0 98 99
r 0.612229 2 3 cbr 1000 ------- 0 2.0 3.0 80 80
- 0.6124 2 3 cbr 1000 ------- 0 2.0 3.0 98 99
+ 0.613143 2 3 cbr 1000 ------- 0 2.0 3.0 99 100
- 0.6132 2 3 cbr 1000 ------- 0 2.0 3.0 99 100
r 0.613371 2 3 cbr 1000 ------- 0 2.0 3.0 81 81
+ 0.614286 2 3 cbr 1000 ------- 0 2.0 3.0 100 101
- 0.614286 2 3 cbr 1000 ------- 0 2.0 3.0 100 101
r 0.614514 2 3 cbr 1000 ------- 0 2.0 3.0 82 82
+ 0.615429 2 3 cbr 1000 ------- 0 2.0 3.0 101 102
- 0.615429 2 3 cbr 1000 ------- 0 2.0 3.0 101 102
r 0.615657 2 3 cbr 1000 ------- 0 2.0 3.0 83 83
+ 0.616571 2 3 cbr 1000 ------- 0 2.0 3.0 102 103
- 0.616571 2 3 cbr 1000 ------- 0 2.0 3.0 102 103
r 0.6168 2 3 cbr 1000 ------- 0 2.0 3.0 84 84
+ 0.617714 2 3 cbr 1000 ------- 0 2.0 3.0 103 104
- 0.617714 2 3 cbr 1000 ------- 0 2.0 3.0 103 104
r 0.617943 2 3 cbr 1000 ------- 0 2.0 3.0 85 85
+ 0.618857 2 3 cbr 1000 ------- 0 2.0 3.0 104 105
- 0.618857 2 3 cbr 1000 ------- 0 2.0 3.0 104 105
r 0.619086 2 3 cbr 1000 ------- 0 2.0 3.0 86 86
+ 0.62 2 3 cbr 1000 ------- 0 2.0 3.0 105 106
- 0.62 2 3 cbr 1000 ------- 0 2.0 3.0 105 106
r 0.620229 2 3 cbr 1000 ------- 0 2.0 3.0 87 87
+ 0.621143 2 3 cbr 1000 ------- 0 2.0 3.0 106 107
- 0.621143 2 3 cbr 1000 ------- 0 2.0 3.0 106 107
r 0.621371 2 3 cbr 1000 ------- 0 2.0 3.0 88 89
+ 0.622286 2 3 cbr 1000 ------- 0 2.0 3.0 107 108
- 0.622286 2 3 cbr 1000 ------- 0 2.0 3.0 107 108
r 0.622514 2 3 cbr 1000 ------- 0 2.0 3.0 89 90
+ 0.623429 2 3 cbr 1000 ------- 0 2.0 3.0 108 109
- 0.623429 2 3 cbr 1000 ------- 0 2.0 3.0 108 109
r 0.623657 2 3 cbr 1000 ------- 0 2.0 3.0 90 91
+ 0.624571 2 3 cbr 1000 ------- 0 2.0 3.0 109 110
- 0.624571 2 3 cbr 1000 ------- 0 2.0 3.0 109 110
r 0.6248 2 3 cbr 1000 ------- 0 2.0 3.0 91 92
+ 0.625714 2 3 cbr 1000 ------- 0 2.0 3.0 110 111
- 0.625714 2 3 cbr 1000 ------- 0 2.0 3.0 110 111
r 0.625943 2 3 cbr 1000 ------- 0 2.0 3.0 92 93
+ 0.626857 2 3 cbr 1000 ------- 0 2.0 3.0 111 112
- 0.626857 2 3 cbr 1000 ------- 0 2.0 3.0 111 112
r 0.627086 2 3 cbr 1000 ------- 0 2.0 3.0 93 94
+ 0.628 2 3 cbr 1000 ------- 0 2.0 3.0 112 113
- 0.628 2 3 cbr 1000 ------- 0 2.0 3.0 112 113
r 0.628229 2 3 cbr 1000 ------- 0 2.0 3.0 94 95
+ 0.629143 2 3 cbr 1000 ------- 0 2.0 3.0 113 114
- 0.629143 2 3 cbr 1000 ------- 0 2.0 3.0 113 114
r 0.629371 2 3 cbr 1000 ------- 0 2.0 3.0 95 96
+ 0.630286 2 3 cbr 1000 ------- 0 2.0 3.0 114 115
- 0.630286 2 3 cbr 1000 ------- 0 2.0 3.0 114 115
r 0.630514 2 3 cbr 1000 ------- 0 2.0 3.0 96 97
+ 0.631429 2 3 cbr 1000 ------- 0 2.0 3.0 115 116
- 0.631429 2 3 cbr 1000 ------- 0 2.0 3.0 115 116
r 0.6316 2 3 tcp 1000 ------- 1 0.0 4.0 0 88
+ 0.6316 3 4 tcp 1000 ------- 1 0.0 4.0 0 88
- 0.6316 3 4 tcp 1000 ------- 1 0.0 4.0 0 88
r 0.6324 2 3 cbr 1000 ------- 0 2.0 3.0 97 98
+ 0.632571 2 3 cbr 1000 ------- 0 2.0 3.0 116 117
- 0.632571 2 3 cbr 1000 ------- 0 2.0 3.0 116 117
r 0.6332 2 3 cbr 1000 ------- 0 2.0 3.0 98 99
+ 0.633714 2 3 cbr 1000 ------- 0 2.0 3.0 117 118
- 0.633714 2 3 cbr 1000 ------- 0 2.0 3.0 117 118
r 0.634 2 3 cbr 1000 ------- 0 2.0 3.0 99 100
+ 0.634857 2 3 cbr 1000 ------- 0 2.0 3.0 118 119
- 0.634857 2 3 cbr 1000 ------- 0 2.0 3.0 118 119
r 0.635086 2 3 cbr 1000 ------- 0 2.0 3.0 100 101
+ 0.636 2 3 cbr 1000 ------- 0 2.0 3.0 119 120
- 0.636 2 3 cbr 1000 ------- 0 2.0 3.0 119 120
r 0.636229 2 3 cbr 1000 ------- 0 2.0 3.0 101 102
+ 0.637143 2 3 cbr 1000 ------- 0 2.0 3.0 120 121
- 0.637143 2 3 cbr 1000 ------- 0 2.0 3.0 120 121
r 0.637371 2 3 cbr 1000 ------- 0 2.0 3.0 102 103
+ 0.638286 2 3 cbr 1000 ------- 0 2.0 3.0 121 122
- 0.638286 2 3 cbr 1000 ------- 0 2.0 3.0 121 122
r 0.638514 2 3 cbr 1000 ------- 0 2.0 3.0 103 104
+ 0.639429 2 3 cbr 1000 ------- 0 2.0 3.0 122 123
- 0.639429 2 3 cbr 1000 ------- 0 2.0 3.0 122 123
r 0.639657 2 3 cbr 1000 ------- 0 2.0 3.0 104 105
+ 0.640571 2 3 cbr 1000 ------- 0 2.0 3.0 123 124
- 0.640571 2 3 cbr 1000 ------- 0 2.0 3.0 123 124
r 0.6408 2 3 cbr 1000 ------- 0 2.0 3.0 105 106
+ 0.641714 2 3 cbr 1000 ------- 0 2.0 3.0 124 125
- 0.641714 2 3 cbr 1000 ------- 0 2.0 3.0 124 125
r 0.641943 2 3 cbr 1000 ------- 0 2.0 3.0 106 107
r 0.6424 3 4 tcp 1000 ------- 1 0.0 4.0 0 88
+ 0.6424 4 3 ack 40 ------- 1 4.0 0.0 0 126
- 0.6424 4 3 ack 40 ------- 1 4.0 0.0 0 126
+ 0.642857 2 3 cbr 1000 ------- 0 2.0 3.0 125 127
- 0.642857 2 3 cbr 1000 ------- 0 2.0 3.0 125 127
r 0.643086 2 3 cbr 1000 ------- 0 2.0 3.0 107 108
+ 0.644 2 3 cbr 1000 ------- 0 2.0 3.0 126 128
- 0.644 2 3 cbr 1000 ------- 0 2.0 3.0 126 128
r 0.644229 2 3 cbr 1000 ------- 0 2.0 3.0 108 109
+ 0.645143 2 3 cbr 1000 ------- 0 2.0 3.0 127 129
- 0.645143 2 3 cbr 1000 ------- 0 2.0 3.0 127 129
r 0.645371 2 3 cbr 1000 ------- 0 2.0 3.0 109 110
+ 0.646286 2 3 cbr 1000 ------- 0 2.0 3.0 128 130
- 0.646286 2 3 cbr 1000 ------- 0 2.0 3.0 128 130
r 0.646514 2 3 cbr 1000 ------- 0 2.0 3.0 110 111
+ 0.647429 2 3 cbr 1000 ------- 0 2.0 3.0 129 131
- 0.647429 2 3 cbr 1000 ------- 0 2.0 3.0 129 131
r 0.647657 2 3 cbr 1000 ------- 0 2.0 3.0 111 112
+ 0.648571 2 3 cbr 1000 ------- 0 2.0 3.0 130 132
- 0.648571 2 3 cbr 1000 ------- 0 2.0 3.0 130 132
r 0.6488 2 3 cbr 1000 ------- 0 2.0 3.0 112 113
+ 0.649714 2 3 cbr 1000 ------- 0 2.0 3.0 131 133
- 0.649714 2 3 cbr 1000 ------- 0 2.0 3.0 131 133
r 0.649943 2 3 cbr 1000 ------- 0 2.0 3.0 113 114
+ 0.650857 2 3 cbr 1000 ------- 0 2.0 3.0 132 134
- 0.650857 2 3 cbr 1000 ------- 0 2.0 3.0 132 134
r 0.651086 2 3 cbr 1000 ------- 0 2.0 3.0 114 115
+ 0.652 2 3 cbr 1000 ------- 0 2.0 3.0 133 135
- 0.652 2 3 cbr 1000 ------- 0 2.0 3.0 133 135
r 0.652229 2 3 cbr 1000 ------- 0 2.0 3.0 115 116
r 0.652432 4 3 ack 40 ------- 1 4.0 0.0 0 126
+ 0.652432 3 2 ack 40 ------- 1 4.0 0.0 0 126
- 0.652432 3 2 ack 40 ------- 1 4.0 0.0 0 126
+ 0.653143 2 3 cbr 1000 ------- 0 2.0 3.0 134 136
- 0.653143 2 3 cbr 1000 ------- 0 2.0 3.0 134 136
r 0.653371 2 3 cbr 1000 ------- 0 2.0 3.0 116 117
+ 0.654286 2 3 cbr 1000 ------- 0 2.0 3.0 135 137
- 0.654286 2 3 cbr 1000 ------- 0 2.0 3.0 135 137
r 0.654514 2 3 cbr 1000 ------- 0 2.0 3.0 117 118
+ 0.655429 2 3 cbr 1000 ------- 0 2.0 3.0 136 138
- 0.655429 2 3 cbr 1000 ------- 0 2.0 3.0 136 138
r 0.655657 2 3 cbr 1000 ------- 0 2.0 3.0 118 119
+ 0.656571 2 3 cbr 1000 ------- 0 2.0 3.0 137 139
- 0.656571 2 3 cbr 1000 ------- 0 2.0 3.0 137 139
r 0.6568 2 3 cbr 1000 ------- 0 2.0 3.0 119 120
+ 0.657714 2 3 cbr 1000 ------- 0 2.0 3.0 138 140
- 0.657714 2 3 cbr 1000 ------- 0 2.0 3.0 138 140
r 0.657943 2 3 cbr 1000 ------- 0 2.0 3.0 120 121
+ 0.658857 2 3 cbr 1000 ------- 0 2.0 3.0 139 141
- 0.658857 2 3 cbr 1000 ------- 0 2.0 3.0 139 141
r 0.659086 2 3 cbr 1000 ------- 0 2.0 3.0 121 122
+ 0.66 2 3 cbr 1000 ------- 0 2.0 3.0 140 142
- 0.66 2 3 cbr 1000 ------- 0 2.0 3.0 140 142
r 0.660229 2 3 cbr 1000 ------- 0 2.0 3.0 122 123
+ 0.661143 2 3 cbr 1000 ------- 0 2.0 3.0 141 143
- 0.661143 2 3 cbr 1000 ------- 0 2.0 3.0 141 143
r 0.661371 2 3 cbr 1000 ------- 0 2.0 3.0 123 124
+ 0.662286 2 3 cbr 1000 ------- 0 2.0 3.0 142 144
- 0.662286 2 3 cbr 1000 ------- 0 2.0 3.0 142 144
r 0.662514 2 3 cbr 1000 ------- 0 2.0 3.0 124 125
+ 0.663429 2 3 cbr 1000 ------- 0 2.0 3.0 143 145
- 0.663429 2 3 cbr 1000 ------- 0 2.0 3.0 143 145
r 0.663657 2 3 cbr 1000 ------- 0 2.0 3.0 125 127
+ 0.664571 2 3 cbr 1000 ------- 0 2.0 3.0 144 146
- 0.664571 2 3 cbr 1000 ------- 0 2.0 3.0 144 146
r 0.6648 2 3 cbr 1000 ------- 0 2.0 3.0 126 128
+ 0.665714 2 3 cbr 1000 ------- 0 2.0 3.0 145 147
- 0.665714 2 3 cbr 1000 ------- 0 2.0 3.0 145 147
r 0.665943 2 3 cbr 1000 ------- 0 2.0 3.0 127 129
+ 0.666857 2 3 cbr 1000 ------- 0 2.0 3.0 146 148
- 0.666857 2 3 cbr 1000 ------- 0 2.0 3.0 146 148
r 0.667086 2 3 cbr 1000 ------- 0 2.0 3.0 128 130
+ 0.668 2 3 cbr 1000 ------- 0 2.0 3.0 147 149
- 0.668 2 3 cbr 1000 ------- 0 2.0 3.0 147 149
r 0.668229 2 3 cbr 1000 ------- 0 2.0 3.0 129 131
+ 0.669143 2 3 cbr 1000 ------- 0 2.0 3.0 148 150
- 0.669143 2 3 cbr 1000 ------- 0 2.0 3.0 148 150
r 0.669371 2 3 cbr 1000 ------- 0 2.0 3.0 130 132
+ 0.670286 2 3 cbr 1000 ------- 0 2.0 3.0 149 151
- 0.670286 2 3 cbr 1000 ------- 0 2.0 3.0 149 151
r 0.670514 2 3 cbr 1000 ------- 0 2.0 3.0 131 133
+ 0.671429 2 3 cbr 1000 ------- 0 2.0 3.0 150 152
- 0.671429 2 3 cbr 1000 ------- 0 2.0 3.0 150 152
r 0.671657 2 3 cbr 1000 ------- 0 2.0 3.0 132 134
r 0.672464 3 2 ack 40 ------- 1 4.0 0.0 0 126
+ 0.672464 2 0 ack 40 ------- 1 4.0 0.0 0 126
- 0.672464 2 0 ack 40 ------- 1 4.0 0.0 0 126
+ 0.672571 2 3 cbr 1000 ------- 0 2.0 3.0 151 153
- 0.672571 2 3 cbr 1000 ------- 0 2.0 3.0 151 153
r 0.6728 2 3 cbr 1000 ------- 0 2.0 3.0 133 135
+ 0.673714 2 3 cbr 1000 ------- 0 2.0 3.0 152 154
- 0.673714 2 3 cbr 1000 ------- 0 2.0 3.0 152 154
r 0.673943 2 3 cbr 1000 ------- 0 2.0 3.0 134 136
+ 0.674857 2 3 cbr 1000 ------- 0 2.0 3.0 153 155
- 0.674857 2 3 cbr 1000 ------- 0 2.0 3.0 153 155
r 0.675086 2 3 cbr 1000 ------- 0 2.0 3.0 135 137
+ 0.676 2 3 cbr 1000 ------- 0 2.0 3.0 154 156
- 0.676 2 3 cbr 1000 ------- 0 2.0 3.0 154 156
r 0.676229 2 3 cbr 1000 ------- 0 2.0 3.0 136 138
+ 0.677143 2 3 cbr 1000 ------- 0 2.0 3.0 155 157
- 0.677143 2 3 cbr 1000 ------- 0 2.0 3.0 155 157
r 0.677371 2 3 cbr 1000 ------- 0 2.0 3.0 137 139
+ 0.678286 2 3 cbr 1000 ------- 0 2.0 3.0 156 158
- 0.678286 2 3 cbr 1000 ------- 0 2.0 3.0 156 158
r 0.678514 2 3 cbr 1000 ------- 0 2.0 3.0 138 140
+ 0.679429 2 3 cbr 1000 ------- 0 2.0 3.0 157 159
- 0.679429 2 3 cbr 1000 ------- 0 2.0 3.0 157 159
r 0.679657 2 3 cbr 1000 ------- 0 2.0 3.0 139 141
+ 0.680571 2 3 cbr 1000 ------- 0 2.0 3.0 158 160
- 0.680571 2 3 cbr 1000 ------- 0 2.0 3.0 158 160
r 0.6808 2 3 cbr 1000 ------- 0 2.0 3.0 140 142
+ 0.681714 2 3 cbr 1000 ------- 0 2.0 3.0 159 161
- 0.681714 2 3 cbr 1000 ------- 0 2.0 3.0 159 161
r 0.681943 2 3 cbr 1000 ------- 0 2.0 3.0 141 143
r 0.682496 2 0 ack 40 ------- 1 4.0 0.0 0 126
+ 0.682496 0 2 tcp 1000 ------- 1 0.0 4.0 1 162
- 0.682496 0 2 tcp 1000 ------- 1 0.0 4.0 1 162
+ 0.682857 2 3 cbr 1000 ------- 0 2.0 3.0 160 163
- 0.682857 2 3 cbr 1000 ------- 0 2.0 3.0 160 163
r 0.683086 2 3 cbr 1000 ------- 0 2.0 3.0 142 144
+ 0.684 2 3 cbr 1000 ------- 0 2.0 3.0 161 164
- 0.684 2 3 cbr 1000 ------- 0 2.0 3.0 161 164
r 0.684229 2 3 cbr 1000 ------- 0 2.0 3.0 143 145
+ 0.685143 2 3 cbr 1000 ------- 0 2.0 3.0 162 165
- 0.685143 2 3 cbr 1000 ------- 0 2.0 3.0 162 165
r 0.685371 2 3 cbr 1000 ------- 0 2.0 3.0 144 146
+ 0.686286 2 3 cbr 1000 ------- 0 2.0 3.0 163 166
- 0.686286 2 3 cbr 1000 ------- 0 2.0 3.0 163 166
r 0.686514 2 3 cbr 1000 ------- 0 2.0 3.0 145 147
+ 0.687429 2 3 cbr 1000 ------- 0 2.0 3.0 164 167
- 0.687429 2 3 cbr 1000 ------- 0 2.0 3.0 164 167
r 0.687657 2 3 cbr 1000 ------- 0 2.0 3.0 146 148
+ 0.688571 2 3 cbr 1000 ------- 0 2.0 3.0 165 168
- 0.688571 2 3 cbr 1000 ------- 0 2.0 3.0 165 168
r 0.6888 2 3 cbr 1000 ------- 0 2.0 3.0 147 149
+ 0.689714 2 3 cbr 1000 ------- 0 2.0 3.0 166 169
- 0.689714 2 3 cbr 1000 ------- 0 2.0 3.0 166 169
r 0.689943 2 3 cbr 1000 ------- 0 2.0 3.0 148 150
+ 0.690857 2 3 cbr 1000 ------- 0 2.0 3.0 167 170
- 0.690857 2 3 cbr 1000 ------- 0 2.0 3.0 167 170
r 0.691086 2 3 cbr 1000 ------- 0 2.0 3.0 149 151
+ 0.692 2 3 cbr 1000 ------- 0 2.0 3.0 168 171
- 0.692 2 3 cbr 1000 ------- 0 2.0 3.0 168 171
r 0.692229 2 3 cbr 1000 ------- 0 2.0 3.0 150 152
+ 0.693143 2 3 cbr 1000 ------- 0 2.0 3.0 169 172
- 0.693143 2 3 cbr 1000 ------- 0 2.0 3.0 169 172
r 0.693296 0 2 tcp 1000 ------- 1 0.0 4.0 1 162
+ 0.693296 2 3 tcp 1000 ------- 1 0.0 4.0 1 162
r 0.693371 2 3 cbr 1000 ------- 0 2.0 3.0 151 153
- 0.693943 2 3 tcp 1000 ------- 1 0.0 4.0 1 162
+ 0.694286 2 3 cbr 1000 ------- 0 2.0 3.0 170 173
r 0.694514 2 3 cbr 1000 ------- 0 2.0 3.0 152 154
- 0.694743 2 3 cbr 1000 ------- 0 2.0 3.0 170 173
+ 0.695429 2 3 cbr 1000 ------- 0 2.0 3.0 171 174
- 0.695543 2 3 cbr 1000 ------- 0 2.0 3.0 171 174
r 0.695657 2 3 cbr 1000 ------- 0 2.0 3.0 153 155
+ 0.696571 2 3 cbr 1000 ------- 0 2.0 3.0 172 175
- 0.696571 2 3 cbr 1000 ------- 0 2.0 3.0 172 175
r 0.6968 2 3 cbr 1000 ------- 0 2.0 3.0 154 156
+ 0.697714 2 3 cbr 1000 ------- 0 2.0 3.0 173 176
- 0.697714 2 3 cbr 1000 ------- 0 2.0 3.0 173 176
r 0.697943 2 3 cbr 1000 ------- 0 2.0 3.0 155 157
+ 0.698857 2 3 cbr 1000 ------- 0 2.0 3.0 174 177
- 0.698857 2 3 cbr 1000 ------- 0 2.0 3.0 174 177
r 0.699086 2 3 cbr 1000 ------- 0 2.0 3.0 156 158
+ 0.7 2 3 cbr 1000 ------- 0 2.0 3.0 175 178
- 0.7 2 3 cbr 1000 ------- 0 2.0 3.0 175 178
r 0.700229 2 3 cbr 1000 ------- 0 2.0 3.0 157 159
+ 0.701143 2 3 cbr 1000 ------- 0 2.0 3.0 176 179
- 0.701143 2 3 cbr 1000 ------- 0 2.0 3.0 176 179
r 0.701371 2 3 cbr 1000 ------- 0 2.0 3.0 158 160
+ 0.702286 2 3 cbr 1000 ------- 0 2.0 3.0 177 180
- 0.702286 2 3 cbr 1000 ------- 0 2.0 3.0 177 180
r 0.702514 2 3 cbr 1000 ------- 0 2.0 3.0 159 161
+ 0.703429 2 3 cbr 1000 ------- 0 2.0 3.0 178 181
- 0.703429 2 3 cbr 1000 ------- 0 2.0 3.0 178 181
r 0.703657 2 3 cbr 1000 ------- 0 2.0 3.0 160 163
+ 0.704571 2 3 cbr 1000 ------- 0 2.0 3.0 179 182
- 0.704571 2 3 cbr 1000 ------- 0 2.0 3.0 179 182
r 0.7048 2 3 cbr 1000 ------- 0 2.0 3.0 161 164
+ 0.705714 2 3 cbr 1000 ------- 0 2.0 3.0 180 183
- 0.705714 2 3 cbr 1000 ------- 0 2.0 3.0 180 183
r 0.705943 2 3 cbr 1000 ------- 0 2.0 3.0 162 165
+ 0.706857 2 3 cbr 1000 ------- 0 2.0 3.0 181 184
- 0.706857 2 3 cbr 1000 ------- 0 2.0 3.0 181 184
r 0.707086 2 3 cbr 1000 ------- 0 2.0 3.0 163 166
+ 0.708 2 3 cbr 1000 ------- 0 2.0 3.0 182 185
- 0.708 2 3 cbr 1000 ------- 0 2.0 3.0 182 185
r 0.708229 2 3 cbr 1000 ------- 0 2.0 3.0 164 167
+ 0.709143 2 3 cbr 1000 ------- 0 2.0 3.0 183 186
- 0.709143 2 3 cbr 1000 ------- 0 2.0 3.0 183 186
r 0.709371 2 3 cbr 1000 ------- 0 2.0 3.0 165 168
+ 0.710286 2 3 cbr 1000 ------- 0 2.0 3.0 184 187
- 0.710286 2 3 cbr 1000 ------- 0 2.0 3.0 184 187
r 0.710514 2 3 cbr 1000 ------- 0 2.0 3.0 166 169
+ 0.711429 2 3 cbr 1000 ------- 0 2.0 3.0 185 188
- 0.711429 2 3 cbr 1000 ------- 0 2.0 3.0 185 188
r 0.711657 2 3 cbr 1000 ------- 0 2.0 3.0 167 170
+ 0.712571 2 3 cbr 1000 ------- 0 2.0 3.0 186 189
- 0.712571 2 3 cbr 1000 ------- 0 2.0 3.0 186 189
r 0.7128 2 3 cbr 1000 ------- 0 2.0 3.0 168 171
+ 0.713714 2 3 cbr 1000 ------- 0 2.0 3.0 187 190
- 0.713714 2 3 cbr 1000 ------- 0 2.0 3.0 187 190
r 0.713943 2 3 cbr 1000 ------- 0 2.0 3.0 169 172
r 0.714743 2 3 tcp 1000 ------- 1 0.0 4.0 1 162
+ 0.714743 3 4 tcp 1000 ------- 1 0.0 4.0 1 162
- 0.714743 3 4 tcp 1000 ------- 1 0.0 4.0 1 162
+ 0.714857 2 3 cbr 1000 ------- 0 2.0 3.0 188 191
- 0.714857 2 3 cbr 1000 ------- 0 2.0 3.0 188 191
r 0.715543 2 3 cbr 1000 ------- 0 2.0 3.0 170 173
+ 0.716 2 3 cbr 1000 ------- 0 2.0 3.0 189 192
- 0.716 2 3 cbr 1000 ------- 0 2.0 3.0 189 192
r 0.716343 2 3 cbr 1000 ------- 0 2.0 3.0 171 174
+ 0.717143 2 3 cbr 1000 ------- 0 2.0 3.0 190 193
- 0.717143 2 3 cbr 1000 ------- 0 2.0 3.0 190 193
r 0.717371 2 3 cbr 1000 ------- 0 2.0 3.0 172 175
+ 0.718286 2 3 cbr 1000 ------- 0 2.0 3.0 191 194
- 0.718286 2 3 cbr 1000 ------- 0 2.0 3.0 191 194
r 0.718514 2 3 cbr 1000 ------- 0 2.0 3.0 173 176
+ 0.719429 2 3 cbr 1000 ------- 0 2.0 3.0 192 195
- 0.719429 2 3 cbr 1000 ------- 0 2.0 3.0 192 195
r 0.719657 2 3 cbr 1000 ------- 0 2.0 3.0 174 177
+ 0.720571 2 3 cbr 1000 ------- 0 2.0 3.0 193 196
- 0.720571 2 3 cbr 1000 ------- 0 2.0 3.0 193 196
r 0.7208 2 3 cbr 1000 ------- 0 2.0 3.0 175 178
+ 0.721714 2 3 cbr 1000 ------- 0 2.0 3.0 194 197
- 0.721714 2 3 cbr 1000 ------- 0 2.0 3.0 194 197
r 0.721943 2 3 cbr 1000 ------- 0 2.0 3.0 176 179
+ 0.722857 2 3 cbr 1000 ------- 0 2.0 3.0 195 198
- 0.722857 2 3 cbr 1000 ------- 0 2.0 3.0 195 198
r 0.723086 2 3 cbr 1000 ------- 0 2.0 3.0 177 180
+ 0.724 2 3 cbr 1000 ------- 0 2.0 3.0 196 199
- 0.724 2 3 cbr 1000 ------- 0 2.0 3.0 196 199
r 0.724229 2 3 cbr 1000 ------- 0 2.0 3.0 178 181
+ 0.725143 2 3 cbr 1000 ------- 0 2.0 3.0 197 200
- 0.725143 2 3 cbr 1000 ------- 0 2.0 3.0 197 200
r 0.725371 2 3 cbr 1000 ------- 0 2.0 3.0 179 182
r 0.725543 3 4 tcp 1000 ------- 1 0.0 4.0 1 162
+ 0.725543 4 3 ack 40 ------- 1 4.0 0.0 1 201
- 0.725543 4 3 ack 40 ------- 1 4.0 0.0 1 201
+ 0.726286 2 3 cbr 1000 ------- 0 2.0 3.0 198 202
- 0.726286 2 3 cbr 1000 ------- 0 2.0 3.0 198 202
r 0.726514 2 3 cbr 1000 ------- 0 2.0 3.0 180 183
+ 0.727429 2 3 cbr 1000 ------- 0 2.0 3.0 199 203
- 0.727429 2 3 cbr 1000 ------- 0 2.0 3.0 199 203
r 0.727657 2 3 cbr 1000 ------- 0 2.0 3.0 181 184
+ 0.728571 2 3 cbr 1000 ------- 0 2.0 3.0 200 204
- 0.728571 2 3 cbr 1000 ------- 0 2.0 3.0 200 204
r 0.7288 2 3 cbr 1000 ------- 0 2.0 3.0 182 185
+ 0.729714 2 3 cbr 1000 ------- 0 2.0 3.0 201 205
- 0.729714 2 3 cbr 1000 ------- 0 2.0 3.0 201 205
r 0.729943 2 3 cbr 1000 ------- 0 2.0 3.0 183 186
+ 0.730857 2 3 cbr 1000 ------- 0 2.0 3.0 202 206
- 0.730857 2 3 cbr 1000 ------- 0 2.0 3.0 202 206
r 0.731086 2 3 cbr 1000 ------- 0 2.0 3.0 184 187