+ 0.5 2 3 cbr 1000 ------- 0 2.0 3.0 0 0
- 0.5 2 3 cbr 1000 ------- 0 2.0 3.0 0 0
+ 0.501333 2 3 cbr 1000 ------- 0 2.0 3.0 1 1
- 0.501333 2 3 cbr 1000 ------- 0 2.0 3.0 1 1
+ 0.502667 2 3 cbr 1000 ------- 0 2.0 3.0 2 2
- 0.502667 2 3 cbr 1000 ------- 0 2.0 3.0 2 2
+ 0.504 2 3 cbr 1000 ------- 0 2.0 3.0 3 3
- 0.504 2 3 cbr 1000 ------- 0 2.0 3.0 3 3
+ 0.505333 2 3 cbr 1000 ------- 0 2.0 3.0 4 4
- 0.505333 2 3 cbr 1000 ------- 0 2.0 3.0 4 4
+ 0.506667 2 3 cbr 1000 ------- 0 2.0 3.0 5 5
- 0.506667 2 3 cbr 1000 ------- 0 2.0 3.0 5 5
+ 0.508 2 3 cbr 1000 ------- 0 2.0 3.0 6 6
- 0.508 2 3 cbr 1000 ------- 0 2.0 3.0 6 6
+ 0.509333 2 3 cbr 1000 ------- 0 2.0 3.0 7 7
- 0.509333 2 3 cbr 1000 ------- 0 2.0 3.0 7 7
+ 0.510667 2 3 cbr 1000 ------- 0 2.0 3.0 8 8
- 0.510667 2 3 cbr 1000 ------- 0 2.0 3.0 8 8
+ 0.512 2 3 cbr 1000 ------- 0 2.0 3.0 9 9
- 0.512 2 3 cbr 1000 ------- 0 2.0 3.0 9 9
+ 0.513333 2 3 cbr 1000 ------- 0 2.0 3.0 10 10
- 0.513333 2 3 cbr 1000 ------- 0 2.0 3.0 10 10
+ 0.514667 2 3 cbr 1000 ------- 0 2.0 3.0 11 11
- 0.514667 2 3 cbr 1000 ------- 0 2.0 3.0 11 11
+ 0.516 2 3 cbr 1000 ------- 0 2.0 3.0 12 12
- 0.516 2 3 cbr 1000 ------- 0 2.0 3.0 12 12
+ 0.517333 2 3 cbr 1000 ------- 0 2.0 3.0 13 13
- 0.517333 2 3 cbr 1000 ------- 0 2.0 3.0 13 13
+ 0.518667 2 3 cbr 1000 ------- 0 2.0 3.0 14 14
- 0.518667 2 3 cbr 1000 ------- 0 2.0 3.0 14 14
+ 0.52 2 3 cbr 1000 ------- 0 2.0 3.0 15 15
- 0.52 2 3 cbr 1000 ------- 0 2.0 3.0 15 15
r 0.5208 2 3 cbr 1000 ------- 0 2.0 3.0 0 0
+ 0.521333 2 3 cbr 1000 ------- 0 2.0 3.0 16 16
- 0.521333 2 3 cbr 1000 ------- 0 2.0 3.0 16 16
r 0.522133 2 3 cbr 1000 ------- 0 2.0 3.0 1 1
+ 0.522667 2 3 cbr 1000 ------- 0 2.0 3.0 17 17
- 0.522667 2 3 cbr 1000 ------- 0 2.0 3.0 17 17
r 0.523467 2 3 cbr 1000 ------- 0 2.0 3.0 2 2
+ 0.524 2 3 cbr 1000 ------- 0 2.0 3.0 18 18
- 0.524 2 3 cbr 1000 ------- 0 2.0 3.0 18 18
r 0.5248 2 3 cbr 1000 ------- 0 2.0 3.0 3 3
+ 0.525333 2 3 cbr 1000 ------- 0 2.0 3.0 19 19
- 0.525333 2 3 cbr 1000 ------- 0 2.0 3.0 19 19
r 0.526133 2 3 cbr 1000 ------- 0 2.0 3.0 4 4
+ 0.526667 2 3 cbr 1000 ------- 0 2.0 3.0 20 20
- 0.526667 2 3 cbr 1000 ------- 0 2.0 3.0 20 20
r 0.527467 2 3 cbr 1000 ------- 0 2.0 3.0 5 5
+ 0.528 2 3 cbr 1000 ------- 0 2.0 3.0 21 21
- 0.528 2 3 cbr 1000 ------- 0 2.0 3.0 21 21
r 0.5288 2 3 cbr 1000 ------- 0 2.0 3.0 6 6
+ 0.529333 2 3 cbr 1000 ------- 0 2.0 3.0 22 22
- 0.529333 2 3 cbr 1000 ------- 0 2.0 3.0 22 22
r 0.530133 2 3 cbr 1000 ------- 0 2.0 3.0 7 7
+ 0.530667 2 3 cbr 1000 ------- 0 2.0 3.0 23 23
- 0.530667 2 3 cbr 1000 ------- 0 2.0 3.0 23 23
r 0.531467 2 3 cbr 1000 ------- 0 2.0 3.0 8 8
+ 0.532 2 3 cbr 1000 ------- 0 2.0 3.0 24 24
- 0.532 2 3 cbr 1000 ------- 0 2.0 3.0 24 24
r 0.5328 2 3 cbr 1000 ------- 0 2.0 3.0 9 9
+ 0.533333 2 3 cbr 1000 ------- 0 2.0 3.0 25 25
- 0.533333 2 3 cbr 1000 ------- 0 2.0 3.0 25 25
r 0.534133 2 3 cbr 1000 ------- 0 2.0 3.0 10 10
+ 0.534667 2 3 cbr 1000 ------- 0 2.0 3.0 26 26
- 0.534667 2 3 cbr 1000 ------- 0 2.0 3.0 26 26
r 0.535467 2 3 cbr 1000 ------- 0 2.0 3.0 11 11
+ 0.536 2 3 cbr 1000 ------- 0 2.0 3.0 27 27
- 0.536 2 3 cbr 1000 ------- 0 2.0 3.0 27 27
r 0.5368 2 3 cbr 1000 ------- 0 2.0 3.0 12 12
+ 0.537333 2 3 cbr 1000 ------- 0 2.0 3.0 28 28
- 0.537333 2 3 cbr 1000 ------- 0 2.0 3.0 28 28
r 0.538133 2 3 cbr 1000 ------- 0 2.0 3.0 13 13
+ 0.538667 2 3 cbr 1000 ------- 0 2.0 3.0 29 29
- 0.538667 2 3 cbr 1000 ------- 0 2.0 3.0 29 29
r 0.539467 2 3 cbr 1000 ------- 0 2.0 3.0 14 14
+ 0.54 2 3 cbr 1000 ------- 0 2.0 3.0 30 30
- 0.54 2 3 cbr 1000 ------- 0 2.0 3.0 30 30
r 0.5408 2 3 cbr 1000 ------- 0 2.0 3.0 15 15
+ 0.541333 2 3 cbr 1000 ------- 0 2.0 3.0 31 31
- 0.541333 2 3 cbr 1000 ------- 0 2.0 3.0 31 31
r 0.542133 2 3 cbr 1000 ------- 0 2.0 3.0 16 16
+ 0.542667 2 3 cbr 1000 ------- 0 2.0 3.0 32 32
- 0.542667 2 3 cbr 1000 ------- 0 2.0 3.0 32 32
r 0.543467 2 3 cbr 1000 ------- 0 2.0 3.0 17 17
+ 0.544 2 3 cbr 1000 ------- 0 2.0 3.0 33 33
- 0.544 2 3 cbr 1000 ------- 0 2.0 3.0 33 33
r 0.5448 2 3 cbr 1000 ------- 0 2.0 3.0 18 18
+ 0.545333 2 3 cbr 1000 ------- 0 2.0 3.0 34 34
- 0.545333 2 3 cbr 1000 ------- 0 2.0 3.0 34 34
r 0.546133 2 3 cbr 1000 ------- 0 2.0 3.0 19 19
+ 0.546667 2 3 cbr 1000 ------- 0 2.0 3.0 35 35
- 0.546667 2 3 cbr 1000 ------- 0 2.0 3.0 35 35
r 0.547467 2 3 cbr 1000 ------- 0 2.0 3.0 20 20
+ 0.548 2 3 cbr 1000 ------- 0 2.0 3.0 36 36
- 0.548 2 3 cbr 1000 ------- 0 2.0 3.0 36 36
r 0.5488 2 3 cbr 1000 ------- 0 2.0 3.0 21 21
+ 0.549333 2 3 cbr 1000 ------- 0 2.0 3.0 37 37
- 0.549333 2 3 cbr 1000 ------- 0 2.0 3.0 37 37
r 0.550133 2 3 cbr 1000 ------- 0 2.0 3.0 22 22
+ 0.550667 2 3 cbr 1000 ------- 0 2.0 3.0 38 38
- 0.550667 2 3 cbr 1000 ------- 0 2.0 3.0 38 38
r 0.551467 2 3 cbr 1000 ------- 0 2.0 3.0 23 23
+ 0.552 2 3 cbr 1000 ------- 0 2.0 3.0 39 39
- 0.552 2 3 cbr 1000 ------- 0 2.0 3.0 39 39
r 0.5528 2 3 cbr 1000 ------- 0 2.0 3.0 24 24
+ 0.553333 2 3 cbr 1000 ------- 0 2.0 3.0 40 40
- 0.553333 2 3 cbr 1000 ------- 0 2.0 3.0 40 40
r 0.554133 2 3 cbr 1000 ------- 0 2.0 3.0 25 25
+ 0.554667 2 3 cbr 1000 ------- 0 2.0 3.0 41 41
- 0.554667 2 3 cbr 1000 ------- 0 2.0 3.0 41 41
r 0.555467 2 3 cbr 1000 ------- 0 2.0 3.0 26 26
+ 0.556 2 3 cbr 1000 ------- 0 2.0 3.0 42 42
- 0.556 2 3 cbr 1000 ------- 0 2.0 3.0 42 42
r 0.5568 2 3 cbr 1000 ------- 0 2.0 3.0 27 27
+ 0.557333 2 3 cbr 1000 ------- 0 2.0 3.0 43 43
- 0.557333 2 3 cbr 1000 ------- 0 2.0 3.0 43 43
r 0.558133 2 3 cbr 1000 ------- 0 2.0 3.0 28 28
+ 0.558667 2 3 cbr 1000 ------- 0 2.0 3.0 44 44
- 0.558667 2 3 cbr 1000 ------- 0 2.0 3.0 44 44
r 0.559467 2 3 cbr 1000 ------- 0 2.0 3.0 29 29
+ 0.56 2 3 cbr 1000 ------- 0 2.0 3.0 45 45
- 0.56 2 3 cbr 1000 ------- 0 2.0 3.0 45 45
r 0.5608 2 3 cbr 1000 ------- 0 2.0 3.0 30 30
+ 0.561333 2 3 cbr 1000 ------- 0 2.0 3.0 46 46
- 0.561333 2 3 cbr 1000 ------- 0 2.0 3.0 46 46
r 0.562133 2 3 cbr 1000 ------- 0 2.0 3.0 31 31
+ 0.562667 2 3 cbr 1000 ------- 0 2.0 3.0 47 47
- 0.562667 2 3 cbr 1000 ------- 0 2.0 3.0 47 47
r 0.563467 2 3 cbr 1000 ------- 0 2.0 3.0 32 32
+ 0.564 2 3 cbr 1000 ------- 0 2.0 3.0 48 48
- 0.564 2 3 cbr 1000 ------- 0 2.0 3.0 48 48
r 0.5648 2 3 cbr 1000 ------- 0 2.0 3.0 33 33
+ 0.565333 2 3 cbr 1000 ------- 0 2.0 3.0 49 49
- 0.565333 2 3 cbr 1000 ------- 0 2.0 3.0 49 49
r 0.566133 2 3 cbr 1000 ------- 0 2.0 3.0 34 34
+ 0.566667 2 3 cbr 1000 ------- 0 2.0 3.0 50 50
- 0.566667 2 3 cbr 1000 ------- 0 2.0 3.0 50 50
r 0.567467 2 3 cbr 1000 ------- 0 2.0 3.0 35 35
+ 0.568 2 3 cbr 1000 ------- 0 2.0 3.0 51 51
- 0.568 2 3 cbr 1000 ------- 0 2.0 3.0 51 51
r 0.5688 2 3 cbr 1000 ------- 0 2.0 3.0 36 36
+ 0.569333 2 3 cbr 1000 ------- 0 2.0 3.0 52 52
- 0.569333 2 3 cbr 1000 ------- 0 2.0 3.0 52 52
r 0.570133 2 3 cbr 1000 ------- 0 2.0 3.0 37 37
+ 0.570667 2 3 cbr 1000 ------- 0 2.0 3.0 53 53
- 0.570667 2 3 cbr 1000 ------- 0 2.0 3.0 53 53
r 0.571467 2 3 cbr 1000 ------- 0 2.0 3.0 38 38
+ 0.572 2 3 cbr 1000 ------- 0 2.0 3.0 54 54
- 0.572 2 3 cbr 1000 ------- 0 2.0 3.0 54 54
r 0.5728 2 3 cbr 1000 ------- 0 2.0 3.0 39 39
+ 0.573333 2 3 cbr 1000 ------- 0 2.0 3.0 55 55
- 0.573333 2 3 cbr 1000 ------- 0 2.0 3.0 55 55
r 0.574133 2 3 cbr 1000 ------- 0 2.0 3.0 40 40
+ 0.574667 2 3 cbr 1000 ------- 0 2.0 3.0 56 56
- 0.574667 2 3 cbr 1000 ------- 0 2.0 3.0 56 56
r 0.575467 2 3 cbr 1000 ------- 0 2.0 3.0 41 41
+ 0.576 2 3 cbr 1000 ------- 0 2.0 3.0 57 57
- 0.576 2 3 cbr 1000 ------- 0 2.0 3.0 57 57
r 0.5768 2 3 cbr 1000 ------- 0 2.0 3.0 42 42
+ 0.577333 2 3 cbr 1000 ------- 0 2.0 3.0 58 58
- 0.577333 2 3 cbr 1000 ------- 0 2.0 3.0 58 58
r 0.578133 2 3 cbr 1000 ------- 0 2.0 3.0 43 43
+ 0.578667 2 3 cbr 1000 ------- 0 2.0 3.0 59 59
- 0.578667 2 3 cbr 1000 ------- 0 2.0 3.0 59 59
r 0.579467 2 3 cbr 1000 ------- 0 2.0 3.0 44 44
+ 0.58 2 3 cbr 1000 ------- 0 2.0 3.0 60 60
- 0.58 2 3 cbr 1000 ------- 0 2.0 3.0 60 60
r 0.5808 2 3 cbr 1000 ------- 0 2.0 3.0 45 45
+ 0.581333 2 3 cbr 1000 ------- 0 2.0 3.0 61 61
- 0.581333 2 3 cbr 1000 ------- 0 2.0 3.0 61 61
r 0.582133 2 3 cbr 1000 ------- 0 2.0 3.0 46 46
+ 0.582667 2 3 cbr 1000 ------- 0 2.0 3.0 62 62
- 0.582667 2 3 cbr 1000 ------- 0 2.0 3.0 62 62
r 0.583467 2 3 cbr 1000 ------- 0 2.0 3.0 47 47
+ 0.584 2 3 cbr 1000 ------- 0 2.0 3.0 63 63
- 0.584 2 3 cbr 1000 ------- 0 2.0 3.0 63 63
r 0.5848 2 3 cbr 1000 ------- 0 2.0 3.0 48 48
+ 0.585333 2 3 cbr 1000 ------- 0 2.0 3.0 64 64
- 0.585333 2 3 cbr 1000 ------- 0 2.0 3.0 64 64
r 0.586133 2 3 cbr 1000 ------- 0 2.0 3.0 49 49
+ 0.586667 2 3 cbr 1000 ------- 0 2.0 3.0 65 65
- 0.586667 2 3 cbr 1000 ------- 0 2.0 3.0 65 65
r 0.587467 2 3 cbr 1000 ------- 0 2.0 3.0 50 50
+ 0.588 2 3 cbr 1000 ------- 0 2.0 3.0 66 66
- 0.588 2 3 cbr 1000 ------- 0 2.0 3.0 66 66
r 0.5888 2 3 cbr 1000 ------- 0 2.0 3.0 51 51
+ 0.589333 2 3 cbr 1000 ------- 0 2.0 3.0 67 67
- 0.589333 2 3 cbr 1000 ------- 0 2.0 3.0 67 67
r 0.590133 2 3 cbr 1000 ------- 0 2.0 3.0 52 52
+ 0.590667 2 3 cbr 1000 ------- 0 2.0 3.0 68 68
- 0.590667 2 3 cbr 1000 ------- 0 2.0 3.0 68 68
r 0.591467 2 3 cbr 1000 ------- 0 2.0 3.0 53 53
+ 0.592 2 3 cbr 1000 ------- 0 2.0 3.0 69 69
- 0.592 2 3 cbr 1000 ------- 0 2.0 3.0 69 69
r 0.5928 2 3 cbr 1000 ------- 0 2.0 3.0 54 54
+ 0.593333 2 3 cbr 1000 ------- 0 2.0 3.0 70 70
- 0.593333 2 3 cbr 1000 ------- 0 2.0 3.0 70 70
r 0.594133 2 3 cbr 1000 ------- 0 2.0 3.0 55 55
+ 0.594667 2 3 cbr 1000 ------- 0 2.0 3.0 71 71
- 0.594667 2 3 cbr 1000 ------- 0 2.0 3.0 71 71
r 0.595467 2 3 cbr 1000 ------- 0 2.0 3.0 56 56
+ 0.596 2 3 cbr 1000 ------- 0 2.0 3.0 72 72
- 0.596 2 3 cbr 1000 ------- 0 2.0 3.0 72 72
r 0.5968 2 3 cbr 1000 ------- 0 2.0 3.0 57 57
+ 0.597333 2 3 cbr 1000 ------- 0 2.0 3.0 73 73
- 0.597333 2 3 cbr 1000 ------- 0 2.0 3.0 73 73
r 0.598133 2 3 cbr 1000 ------- 0 2.0 3.0 58 58
+ 0.598667 2 3 cbr 1000 ------- 0 2.0 3.0 74 74
- 0.598667 2 3 cbr 1000 ------- 0 2.0 3.0 74 74
r 0.599467 2 3 cbr 1000 ------- 0 2.0 3.0 59 59
+ 0.6 2 3 cbr 1000 ------- 0 2.0 3.0 75 75
- 0.6 2 3 cbr 1000 ------- 0 2.0 3.0 75 75
+ 0.6 0 2 tcp 40 ------- 1 0.0 4.0 0 76
- 0.6 0 2 tcp 40 ------- 1 0.0 4.0 0 76
r 0.6008 2 3 cbr 1000 ------- 0 2.0 3.0 60 60
+ 0.601333 2 3 cbr 1000 ------- 0 2.0 3.0 76 77
- 0.601333 2 3 cbr 1000 ------- 0 2.0 3.0 76 77
r 0.602133 2 3 cbr 1000 ------- 0 2.0 3.0 61 61
+ 0.602667 2 3 cbr 1000 ------- 0 2.0 3.0 77 78
- 0.602667 2 3 cbr 1000 ------- 0 2.0 3.0 77 78
r 0.603467 2 3 cbr 1000 ------- 0 2.0 3.0 62 62
+ 0.604 2 3 cbr 1000 ------- 0 2.0 3.0 78 79
- 0.604 2 3 cbr 1000 ------- 0 2.0 3.0 78 79
r 0.6048 2 3 cbr 1000 ------- 0 2.0 3.0 63 63
+ 0.605333 2 3 cbr 1000 ------- 0 2.0 3.0 79 80
- 0.605333 2 3 cbr 1000 ------- 0 2.0 3.0 79 80
r 0.606133 2 3 cbr 1000 ------- 0 2.0 3.0 64 64
+ 0.606667 2 3 cbr 1000 ------- 0 2.0 3.0 80 81
- 0.606667 2 3 cbr 1000 ------- 0 2.0 3.0 80 81
r 0.607467 2 3 cbr 1000 ------- 0 2.0 3.0 65 65
+ 0.608 2 3 cbr 1000 ------- 0 2.0 3.0 81 82
- 0.608 2 3 cbr 1000 ------- 0 2.0 3.0 81 82
r 0.6088 2 3 cbr 1000 ------- 0 2.0 3.0 66 66
+ 0.609333 2 3 cbr 1000 ------- 0 2.0 3.0 82 83
- 0.609333 2 3 cbr 1000 ------- 0 2.0 3.0 82 83
r 0.610032 0 2 tcp 40 ------- 1 0.0 4.0 0 76
+ 0.610032 2 3 tcp 40 ------- 1 0.0 4.0 0 76
- 0.610133 2 3 tcp 40 ------- 1 0.0 4.0 0 76
r 0.610133 2 3 cbr 1000 ------- 0 2.0 3.0 67 67
+ 0.610667 2 3 cbr 1000 ------- 0 2.0 3.0 83 84
- 0.610667 2 3 cbr 1000 ------- 0 2.0 3.0 83 84
r 0.611467 2 3 cbr 1000 ------- 0 2.0 3.0 68 68
+ 0.612 2 3 cbr 1000 ------- 0 2.0 3.0 84 85
- 0.612 2 3 cbr 1000 ------- 0 2.0 3.0 84 85
r 0.6128 2 3 cbr 1000 ------- 0 2.0 3.0 69 69
+ 0.613333 2 3 cbr 1000 ------- 0 2.0 3.0 85 86
- 0.613333 2 3 cbr 1000 ------- 0 2.0 3.0 85 86
r 0.614133 2 3 cbr 1000 ------- 0 2.0 3.0 70 70
+ 0.614667 2 3 cbr 1000 ------- 0 2.0 3.0 86 87
- 0.614667 2 3 cbr 1000 ------- 0 2.0 3.0 86 87
r 0.615467 2 3 cbr 1000 ------- 0 2.0 3.0 71 71
+ 0.616 2 3 cbr 1000 ------- 0 2.0 3.0 87 88
- 0.616 2 3 cbr 1000 ------- 0 2.0 3.0 87 88
r 0.6168 2 3 cbr 1000 ------- 0 2.0 3.0 72 72
+ 0.617333 2 3 cbr 1000 ------- 0 2.0 3.0 88 89
- 0.617333 2 3 cbr 1000 ------- 0 2.0 3.0 88 89
r 0.618133 2 3 cbr 1000 ------- 0 2.0 3.0 73 73
+ 0.618667 2 3 cbr 1000 ------- 0 2.0 3.0 89 90
- 0.618667 2 3 cbr 1000 ------- 0 2.0 3.0 89 90
r 0.619467 2 3 cbr 1000 ------- 0 2.0 3.0 74 74
+ 0.62 2 3 cbr 1000 ------- 0 2.0 3.0 90 91
- 0.62 2 3 cbr 1000 ------- 0 2.0 3.0 90 91
r 0.6208 2 3 cbr 1000 ------- 0 2.0 3.0 75 75
+ 0.621333 2 3 cbr 1000 ------- 0 2.0 3.0 91 92
- 0.621333 2 3 cbr 1000 ------- 0 2.0 3.0 91 92
r 0.622133 2 3 cbr 1000 ------- 0 2.0 3.0 76 77
+ 0.622667 2 3 cbr 1000 ------- 0 2.0 3.0 92 93
- 0.622667 2 3 cbr 1000 ------- 0 2.0 3.0 92 93
r 0.623467 2 3 cbr 1000 ------- 0 2.0 3.0 77 78
+ 0.624 2 3 cbr 1000 ------- 0 2.0 3.0 93 94
- 0.624 2 3 cbr 1000 ------- 0 2.0 3.0 93 94
r 0.6248 2 3 cbr 1000 ------- 0 2.0 3.0 78 79
+ 0.625333 2 3 cbr 1000 ------- 0 2.0 3.0 94 95
- 0.625333 2 3 cbr 1000 ------- 0 2.0 3.0 94 95
r 0.626133 2 3 cbr 1000 ------- 0 2.0 3.0 79 80
+ 0.626667 2 3 cbr 1000 ------- 0 2.0 3.0 95 96
- 0.626667 2 3 cbr 1000 ------- 0 2.0 3.0 95 96
r 0.627467 2 3 cbr 1000 ------- 0 2.0 3.0 80 81
+ 0.628 2 3 cbr 1000 ------- 0 2.0 3.0 96 97
- 0.628 2 3 cbr 1000 ------- 0 2.0 3.0 96 97
r 0.6288 2 3 cbr 1000 ------- 0 2.0 3.0 81 82
+ 0.629333 2 3 cbr 1000 ------- 0 2.0 3.0 97 98
- 0.629333 2 3 cbr 1000 ------- 0 2.0 3.0 97 98
r 0.630133 2 3 cbr 1000 ------- 0 2.0 3.0 82 83
r 0.630165 2 3 tcp 40 ------- 1 0.0 4.0 0 76
+ 0.630165 3 4 tcp 40 ------- 1 0.0 4.0 0 76
- 0.630165 3 4 tcp 40 ------- 1 0.0 4.0 0 76
+ 0.630667 2 3 cbr 1000 ------- 0 2.0 3.0 98 99
- 0.630667 2 3 cbr 1000 ------- 0 2.0 3.0 98 99
r 0.631467 2 3 cbr 1000 ------- 0 2.0 3.0 83 84
+ 0.632 2 3 cbr 1000 ------- 0 2.0 3.0 99 100
- 0.632 2 3 cbr 1000 ------- 0 2.0 3.0 99 100
r 0.6328 2 3 cbr 1000 ------- 0 2.0 3.0 84 85
+ 0.633333 2 3 cbr 1000 ------- 0 2.0 3.0 100 101
- 0.633333 2 3 cbr 1000 ------- 0 2.0 3.0 100 101
r 0.634133 2 3 cbr 1000 ------- 0 2.0 3.0 85 86
+ 0.634667 2 3 cbr 1000 ------- 0 2.0 3.0 101 102
- 0.634667 2 3 cbr 1000 ------- 0 2.0 3.0 101 102
r 0.635467 2 3 cbr 1000 ------- 0 2.0 3.0 86 87
+ 0.636 2 3 cbr 1000 ------- 0 2.0 3.0 102 103
- 0.636 2 3 cbr 1000 ------- 0 2.0 3.0 102 103
r 0.6368 2 3 cbr 1000 ------- 0 2.0 3.0 87 88
+ 0.637333 2 3 cbr 1000 ------- 0 2.0 3.0 103 104
- 0.637333 2 3 cbr 1000 ------- 0 2.0 3.0 103 104
r 0.638133 2 3 cbr 1000 ------- 0 2.0 3.0 88 89
+ 0.638667 2 3 cbr 1000 ------- 0 2.0 3.0 104 105
- 0.638667 2 3 cbr 1000 ------- 0 2.0 3.0 104 105
r 0.639467 2 3 cbr 1000 ------- 0 2.0 3.0 89 90
+ 0.64 2 3 cbr 1000 ------- 0 2.0 3.0 105 106
- 0.64 2 3 cbr 1000 ------- 0 2.0 3.0 105 106
r 0.640197 3 4 tcp 40 ------- 1 0.0 4.0 0 76
+ 0.640197 4 3 ack 40 ------- 1 4.0 0.0 0 107
- 0.640197 4 3 ack 40 ------- 1 4.0 0.0 0 107
r 0.6408 2 3 cbr 1000 ------- 0 2.0 3.0 90 91
+ 0.641333 2 3 cbr 1000 ------- 0 2.0 3.0 106 108
- 0.641333 2 3 cbr 1000 ------- 0 2.0 3.0 106 108
r 0.642133 2 3 cbr 1000 ------- 0 2.0 3.0 91 92
+ 0.642667 2 3 cbr 1000 ------- 0 2.0 3.0 107 109
- 0.642667 2 3 cbr 1000 ------- 0 2.0 3.0 107 109
r 0.643467 2 3 cbr 1000 ------- 0 2.0 3.0 92 93
+ 0.644 2 3 cbr 1000 ------- 0 2.0 3.0 108 110
- 0.644 2 3 cbr 1000 ------- 0 2.0 3.0 108 110
r 0.6448 2 3 cbr 1000 ------- 0 2.0 3.0 93 94
+ 0.645333 2 3 cbr 1000 ------- 0 2.0 3.0 109 111
- 0.645333 2 3 cbr 1000 ------- 0 2.0 3.0 109 111
r 0.646133 2 3 cbr 1000 ------- 0 2.0 3.0 94 95
+ 0.646667 2 3 cbr 1000 ------- 0 2.0 3.0 110 112
- 0.646667 2 3 cbr 1000 ------- 0 2.0 3.0 110 112
r 0.647467 2 3 cbr 1000 ------- 0 2.0 3.0 95 96
+ 0.648 2 3 cbr 1000 ------- 0 2.0 3.0 111 113
- 0.648 2 3 cbr 1000 ------- 0 2.0 3.0 111 113
r 0.6488 2 3 cbr 1000 ------- 0 2.0 3.0 96 97
+ 0.649333 2 3 cbr 1000 ------- 0 2.0 3.0 112 114
- 0.649333 2 3 cbr 1000 ------- 0 2.0 3.0 112 114
r 0.650133 2 3 cbr 1000 ------- 0 2.0 3.0 97 98
r 0.650229 4 3 ack 40 ------- 1 4.0 0.0 0 107
+ 0.650229 3 2 ack 40 ------- 1 4.0 0.0 0 107
- 0.650229 3 2 ack 40 ------- 1 4.0 0.0 0 107
+ 0.650667 2 3 cbr 1000 ------- 0 2.0 3.0 113 115
- 0.650667 2 3 cbr 1000 ------- 0 2.0 3.0 113 115
r 0.651467 2 3 cbr 1000 ------- 0 2.0 3.0 98 99
+ 0.652 2 3 cbr 1000 ------- 0 2.0 3.0 114 116
- 0.652 2 3 cbr 1000 ------- 0 2.0 3.0 114 116
r 0.6528 2 3 cbr 1000 ------- 0 2.0 3.0 99 100
+ 0.653333 2 3 cbr 1000 ------- 0 2.0 3.0 115 117
- 0.653333 2 3 cbr 1000 ------- 0 2.0 3.0 115 117
r 0.654133 2 3 cbr 1000 ------- 0 2.0 3.0 100 101
+ 0.654667 2 3 cbr 1000 ------- 0 2.0 3.0 116 118
- 0.654667 2 3 cbr 1000 ------- 0 2.0 3.0 116 118
r 0.655467 2 3 cbr 1000 ------- 0 2.0 3.0 101 102
+ 0.656 2 3 cbr 1000 ------- 0 2.0 3.0 117 119
- 0.656 2 3 cbr 1000 ------- 0 2.0 3.0 117 119
r 0.6568 2 3 cbr 1000 ------- 0 2.0 3.0 102 103
+ 0.657333 2 3 cbr 1000 ------- 0 2.0 3.0 118 120
- 0.657333 2 3 cbr 1000 ------- 0 2.0 3.0 118 120
r 0.658133 2 3 cbr 1000 ------- 0 2.0 3.0 103 104
+ 0.658667 2 3 cbr 1000 ------- 0 2.0 3.0 119 121
- 0.658667 2 3 cbr 1000 ------- 0 2.0 3.0 119 121
r 0.659467 2 3 cbr 1000 ------- 0 2.0 3.0 104 105
+ 0.66 2 3 cbr 1000 ------- 0 2.0 3.0 120 122
- 0.66 2 3 cbr 1000 ------- 0 2.0 3.0 120 122
r 0.6608 2 3 cbr 1000 ------- 0 2.0 3.0 105 106
+ 0.661333 2 3 cbr 1000 ------- 0 2.0 3.0 121 123
- 0.661333 2 3 cbr 1000 ------- 0 2.0 3.0 121 123
r 0.662133 2 3 cbr 1000 ------- 0 2.0 3.0 106 108
+ 0.662667 2 3 cbr 1000 ------- 0 2.0 3.0 122 124
- 0.662667 2 3 cbr 1000 ------- 0 2.0 3.0 122 124
r 0.663467 2 3 cbr 1000 ------- 0 2.0 3.0 107 109
+ 0.664 2 3 cbr 1000 ------- 0 2.0 3.0 123 125
- 0.664 2 3 cbr 1000 ------- 0 2.0 3.0 123 125
r 0.6648 2 3 cbr 1000 ------- 0 2.0 3.0 108 110
+ 0.665333 2 3 cbr 1000 ------- 0 2.0 3.0 124 126
- 0.665333 2 3 cbr 1000 ------- 0 2.0 3.0 124 126
r 0.666133 2 3 cbr 1000 ------- 0 2.0 3.0 109 111
+ 0.666667 2 3 cbr 1000 ------- 0 2.0 3.0 125 127
- 0.666667 2 3 cbr 1000 ------- 0 2.0 3.0 125 127
r 0.667467 2 3 cbr 1000 ------- 0 2.0 3.0 110 112
+ 0.668 2 3 cbr 1000 ------- 0 2.0 3.0 126 128
- 0.668 2 3 cbr 1000 ------- 0 2.0 3.0 126 128
r 0.6688 2 3 cbr 1000 ------- 0 2.0 3.0 111 113
+ 0.669333 2 3 cbr 1000 ------- 0 2.0 3.0 127 129
- 0.669333 2 3 cbr 1000 ------- 0 2.0 3.0 127 129
r 0.670133 2 3 cbr 1000 ------- 0 2.0 3.0 112 114
r 0.670261 3 2 ack 40 ------- 1 4.0 0.0 0 107
+ 0.670261 2 0 ack 40 ------- 1 4.0 0.0 0 107
- 0.670261 2 0 ack 40 ------- 1 4.0 0.0 0 107
+ 0.670667 2 3 cbr 1000 ------- 0 2.0 3.0 128 130
- 0.670667 2 3 cbr 1000 ------- 0 2.0 3.0 128 130
r 0.671467 2 3 cbr 1000 ------- 0 2.0 3.0 113 115
+ 0.672 2 3 cbr 1000 ------- 0 2.0 3.0 129 131
- 0.672 2 3 cbr 1000 ------- 0 2.0 3.0 129 131
r 0.6728 2 3 cbr 1000 ------- 0 2.0 3.0 114 116
+ 0.673333 2 3 cbr 1000 ------- 0 2.0 3.0 130 132
- 0.673333 2 3 cbr 1000 ------- 0 2.0 3.0 130 132
r 0.674133 2 3 cbr 1000 ------- 0 2.0 3.0 115 117
+ 0.674667 2 3 cbr 1000 ------- 0 2.0 3.0 131 133
- 0.674667 2 3 cbr 1000 ------- 0 2.0 3.0 131 133
r 0.675467 2 3 cbr 1000 ------- 0 2.0 3.0 116 118
+ 0.676 2 3 cbr 1000 ------- 0 2.0 3.0 132 134
- 0.676 2 3 cbr 1000 ------- 0 2.0 3.0 132 134
r 0.6768 2 3 cbr 1000 ------- 0 2.0 3.0 117 119
+ 0.677333 2 3 cbr 1000 ------- 0 2.0 3.0 133 135
- 0.677333 2 3 cbr 1000 ------- 0 2.0 3.0 133 135
r 0.678133 2 3 cbr 1000 ------- 0 2.0 3.0 118 120
+ 0.678667 2 3 cbr 1000 ------- 0 2.0 3.0 134 136
- 0.678667 2 3 cbr 1000 ------- 0 2.0 3.0 134 136
r 0.679467 2 3 cbr 1000 ------- 0 2.0 3.0 119 121
+ 0.68 2 3 cbr 1000 ------- 0 2.0 3.0 135 137
- 0.68 2 3 cbr 1000 ------- 0 2.0 3.0 135 137
r 0.680293 2 0 ack 40 ------- 1 4.0 0.0 0 107
+ 0.680293 0 2 tcp 1040 ------- 1 0.0 4.0 1 138
- 0.680293 0 2 tcp 1040 ------- 1 0.0 4.0 1 138
+ 0.680293 0 2 tcp 1040 ------- 1 0.0 4.0 2 139
r 0.6808 2 3 cbr 1000 ------- 0 2.0 3.0 120 122
- 0.681125 0 2 tcp 1040 ------- 1 0.0 4.0 2 139
+ 0.681333 2 3 cbr 1000 ------- 0 2.0 3.0 136 140
- 0.681333 2 3 cbr 1000 ------- 0 2.0 3.0 136 140
r 0.682133 2 3 cbr 1000 ------- 0 2.0 3.0 121 123
+ 0.682667 2 3 cbr 1000 ------- 0 2.0 3.0 137 141
- 0.682667 2 3 cbr 1000 ------- 0 2.0 3.0 137 141
r 0.683467 2 3 cbr 1000 ------- 0 2.0 3.0 122 124
+ 0.684 2 3 cbr 1000 ------- 0 2.0 3.0 138 142
- 0.684 2 3 cbr 1000 ------- 0 2.0 3.0 138 142
r 0.6848 2 3 cbr 1000 ------- 0 2.0 3.0 123 125
+ 0.685333 2 3 cbr 1000 ------- 0 2.0 3.0 139 143
- 0.685333 2 3 cbr 1000 ------- 0 2.0 3.0 139 143
r 0.686133 2 3 cbr 1000 ------- 0 2.0 3.0 124 126
+ 0.686667 2 3 cbr 1000 ------- 0 2.0 3.0 140 144
- 0.686667 2 3 cbr 1000 ------- 0 2.0 3.0 140 144
r 0.687467 2 3 cbr 1000 ------- 0 2.0 3.0 125 127
+ 0.688 2 3 cbr 1000 ------- 0 2.0 3.0 141 145
- 0.688 2 3 cbr 1000 ------- 0 2.0 3.0 141 145
r 0.6888 2 3 cbr 1000 ------- 0 2.0 3.0 126 128
+ 0.689333 2 3 cbr 1000 ------- 0 2.0 3.0 142 146
- 0.689333 2 3 cbr 1000 ------- 0 2.0 3.0 142 146
r 0.690133 2 3 cbr 1000 ------- 0 2.0 3.0 127 129
+ 0.690667 2 3 cbr 1000 ------- 0 2.0 3.0 143 147
- 0.690667 2 3 cbr 1000 ------- 0 2.0 3.0 143 147
r 0.691125 0 2 tcp 1040 ------- 1 0.0 4.0 1 138
+ 0.691125 2 3 tcp 1040 ------- 1 0.0 4.0 1 138
- 0.691467 2 3 tcp 1040 ------- 1 0.0 4.0 1 138
r 0.691467 2 3 cbr 1000 ------- 0 2.0 3.0 128 130
r 0.691957 0 2 tcp 1040 ------- 1 0.0 4.0 2 139
+ 0.691957 2 3 tcp 1040 ------- 1 0.0 4.0 2 139
+ 0.692 2 3 cbr 1000 ------- 0 2.0 3.0 144 148
- 0.692299 2 3 tcp 1040 ------- 1 0.0 4.0 2 139
r 0.6928 2 3 cbr 1000 ------- 0 2.0 3.0 129 131
- 0.693131 2 3 cbr 1000 ------- 0 2.0 3.0 144 148
+ 0.693333 2 3 cbr 1000 ------- 0 2.0 3.0 145 149
- 0.693931 2 3 cbr 1000 ------- 0 2.0 3.0 145 149
r 0.694133 2 3 cbr 1000 ------- 0 2.0 3.0 130 132
+ 0.694667 2 3 cbr 1000 ------- 0 2.0 3.0 146 150
- 0.694731 2 3 cbr 1000 ------- 0 2.0 3.0 146 150
r 0.695467 2 3 cbr 1000 ------- 0 2.0 3.0 131 133
+ 0.696 2 3 cbr 1000 ------- 0 2.0 3.0 147 151
- 0.696 2 3 cbr 1000 ------- 0 2.0 3.0 147 151
r 0.6968 2 3 cbr 1000 ------- 0 2.0 3.0 132 134
+ 0.697333 2 3 cbr 1000 ------- 0 2.0 3.0 148 152
- 0.697333 2 3 cbr 1000 ------- 0 2.0 3.0 148 152
r 0.698133 2 3 cbr 1000 ------- 0 2.0 3.0 133 135
+ 0.698667 2 3 cbr 1000 ------- 0 2.0 3.0 149 153
- 0.698667 2 3 cbr 1000 ------- 0 2.0 3.0 149 153
r 0.699467 2 3 cbr 1000 ------- 0 2.0 3.0 134 136
+ 0.7 2 3 cbr 1000 ------- 0 2.0 3.0 150 154
- 0.7 2 3 cbr 1000 ------- 0 2.0 3.0 150 154
r 0.7008 2 3 cbr 1000 ------- 0 2.0 3.0 135 137
+ 0.701333 2 3 cbr 1000 ------- 0 2.0 3.0 151 155
- 0.701333 2 3 cbr 1000 ------- 0 2.0 3.0 151 155
r 0.702133 2 3 cbr 1000 ------- 0 2.0 3.0 136 140
+ 0.702667 2 3 cbr 1000 ------- 0 2.0 3.0 152 156
- 0.702667 2 3 cbr 1000 ------- 0 2.0 3.0 152 156
r 0.703467 2 3 cbr 1000 ------- 0 2.0 3.0 137 141
+ 0.704 2 3 cbr 1000 ------- 0 2.0 3.0 153 157
- 0.704 2 3 cbr 1000 ------- 0 2.0 3.0 153 157
r 0.7048 2 3 cbr 1000 ------- 0 2.0 3.0 138 142
+ 0.705333 2 3 cbr 1000 ------- 0 2.0 3.0 154 158
- 0.705333 2 3 cbr 1000 ------- 0 2.0 3.0 154 158
r 0.706133 2 3 cbr 1000 ------- 0 2.0 3.0 139 143
+ 0.706667 2 3 cbr 1000 ------- 0 2.0 3.0 155 159
- 0.706667 2 3 cbr 1000 ------- 0 2.0 3.0 155 159
r 0.707467 2 3 cbr 1000 ------- 0 2.0 3.0 140 144
+ 0.708 2 3 cbr 1000 ------- 0 2.0 3.0 156 160
- 0.708 2 3 cbr 1000 ------- 0 2.0 3.0 156 160
r 0.7088 2 3 cbr 1000 ------- 0 2.0 3.0 141 145
+ 0.709333 2 3 cbr 1000 ------- 0 2.0 3.0 157 161
- 0.709333 2 3 cbr 1000 ------- 0 2.0 3.0 157 161
r 0.710133 2 3 cbr 1000 ------- 0 2.0 3.0 142 146
+ 0.710667 2 3 cbr 1000 ------- 0 2.0 3.0 158 162
- 0.710667 2 3 cbr 1000 ------- 0 2.0 3.0 158 162
r 0.711467 2 3 cbr 1000 ------- 0 2.0 3.0 143 147
+ 0.712 2 3 cbr 1000 ------- 0 2.0 3.0 159 163
- 0.712 2 3 cbr 1000 ------- 0 2.0 3.0 159 163
r 0.712299 2 3 tcp 1040 ------- 1 0.0 4.0 1 138
+ 0.712299 3 4 tcp 1040 ------- 1 0.0 4.0 1 138
- 0.712299 3 4 tcp 1040 ------- 1 0.0 4.0 1 138
r 0.713131 2 3 tcp 1040 ------- 1 0.0 4.0 2 139
+ 0.713131 3 4 tcp 1040 ------- 1 0.0 4.0 2 139
- 0.713131 3 4 tcp 1040 ------- 1 0.0 4.0 2 139
+ 0.713333 2 3 cbr 1000 ------- 0 2.0 3.0 160 164
- 0.713333 2 3 cbr 1000 ------- 0 2.0 3.0 160 164
r 0.713931 2 3 cbr 1000 ------- 0 2.0 3.0 144 148
+ 0.714667 2 3 cbr 1000 ------- 0 2.0 3.0 161 165
- 0.714667 2 3 cbr 1000 ------- 0 2.0 3.0 161 165
r 0.714731 2 3 cbr 1000 ------- 0 2.0 3.0 145 149
r 0.715531 2 3 cbr 1000 ------- 0 2.0 3.0 146 150
+ 0.716 2 3 cbr 1000 ------- 0 2.0 3.0 162 166
- 0.716 2 3 cbr 1000 ------- 0 2.0 3.0 162 166
r 0.7168 2 3 cbr 1000 ------- 0 2.0 3.0 147 151
+ 0.717333 2 3 cbr 1000 ------- 0 2.0 3.0 163 167
- 0.717333 2 3 cbr 1000 ------- 0 2.0 3.0 163 167
r 0.718133 2 3 cbr 1000 ------- 0 2.0 3.0 148 152
+ 0.718667 2 3 cbr 1000 ------- 0 2.0 3.0 164 168
- 0.718667 2 3 cbr 1000 ------- 0 2.0 3.0 164 168
r 0.719467 2 3 cbr 1000 ------- 0 2.0 3.0 149 153
+ 0.72 2 3 cbr 1000 ------- 0 2.0 3.0 165 169
- 0.72 2 3 cbr 1000 ------- 0 2.0 3.0 165 169
r 0.7208 2 3 cbr 1000 ------- 0 2.0 3.0 150 154
+ 0.721333 2 3 cbr 1000 ------- 0 2.0 3.0 166 170
- 0.721333 2 3 cbr 1000 ------- 0 2.0 3.0 166 170
r 0.722133 2 3 cbr 1000 ------- 0 2.0 3.0 151 155
+ 0.722667 2 3 cbr 1000 ------- 0 2.0 3.0 167 171
- 0.722667 2 3 cbr 1000 ------- 0 2.0 3.0 167 171
r 0.723131 3 4 tcp 1040 ------- 1 0.0 4.0 1 138
+ 0.723131 4 3 ack 40 ------- 1 4.0 0.0 1 172
- 0.723131 4 3 ack 40 ------- 1 4.0 0.0 1 172
r 0.723467 2 3 cbr 1000 ------- 0 2.0 3.0 152 156
r 0.723963 3 4 tcp 1040 ------- 1 0.0 4.0 2 139
+ 0.723963 4 3 ack 40 ------- 1 4.0 0.0 2 173
- 0.723963 4 3 ack 40 ------- 1 4.0 0.0 2 173
+ 0.724 2 3 cbr 1000 ------- 0 2.0 3.0 168 174
- 0.724 2 3 cbr 1000 ------- 0 2.0 3.0 168 174
r 0.7248 2 3 cbr 1000 ------- 0 2.0 3.0 153 157
+ 0.725333 2 3 cbr 1000 ------- 0 2.0 3.0 169 175
- 0.725333 2 3 cbr 1000 ------- 0 2.0 3.0 169 175
r 0.726133 2 3 cbr 1000 ------- 0 2.0 3.0 154 158
+ 0.726667 2 3 cbr 1000 ------- 0 2.0 3.0 170 176
- 0.726667 2 3 cbr 1000 ------- 0 2.0 3.0 170 176
r 0.727467 2 3 cbr 1000 ------- 0 2.0 3.0 155 159
+ 0.728 2 3 cbr 1000 ------- 0 2.0 3.0 171 177
- 0.728 2 3 cbr 1000 ------- 0 2.0 3.0 171 177
r 0.7288 2 3 cbr 1000 ------- 0 2.0 3.0 156 160
+ 0.729333 2 3 cbr 1000 ------- 0 2.0 3.0 172 178
- 0.729333 2 3 cbr 1000 ------- 0 2.0 3.0 172 178
r 0.730133 2 3 cbr 1000 ------- 0 2.0 3.0 157 161
+ 0.730667 2 3 cbr 1000 ------- 0 2.0 3.0 173 179
- 0.730667 2 3 cbr 1000 ------- 0 2.0 3.0 173 179
r 0.731467 2 3 cbr 1000 ------- 0 2.0 3.0 158 162
+ 0.732 2 3 cbr 1000 ------- 0 2.0 3.0 174 180
- 0.732 2 3 cbr 1000 ------- 0 2.0 3.0 174 180
r 0.7328 2 3 cbr 1000 ------- 0 2.0 3.0 159 163
r 0.733163 4 3 ack 40 ------- 1 4.0 0.0 1 172
+ 0.733163 3 2 ack 40 ------- 1 4.0 0.0 1 172
- 0.733163 3 2 ack 40 ------- 1 4.0 0.0 1 172
+ 0.733333 2 3 cbr 1000 ------- 0 2.0 3.0 175 181
- 0.733333 2 3 cbr 1000 ------- 0 2.0 3.0 175 181
r 0.733995 4 3 ack 40 ------- 1 4.0 0.0 2 173
+ 0.733995 3 2 ack 40 ------- 1 4.0 0.0 2 173
- 0.733995 3 2 ack 40 ------- 1 4.0 0.0 2 173
r 0.734133 2 3 cbr 1000 ------- 0 2.0 3.0 160 164
+ 0.734667 2 3 cbr 1000 ------- 0 2.0 3.0 176 182
- 0.734667 2 3 cbr 1000 ------- 0 2.0 3.0 176 182
r 0.735467 2 3 cbr 1000 ------- 0 2.0 3.0 161 165
+ 0.736 2 3 cbr 1000 ------- 0 2.0 3.0 177 183
- 0.736 2 3 cbr 1000 ------- 0 2.0 3.0 177 183
r 0.7368 2 3 cbr 1000 ------- 0 2.0 3.0 162 166
+ 0.737333 2 3 cbr 1000 ------- 0 2.0 3.0 178 184
- 0.737333 2 3 cbr 1000 ------- 0 2.0 3.0 178 184
r 0.738133 2 3 cbr 1000 ------- 0 2.0 3.0 163 167
+ 0.738667 2 3 cbr 1000 ------- 0 2.0 3.0 179 185
- 0.738667 2 3 cbr 1000 ------- 0 2.0 3.0 179 185
r 0.739467 2 3 cbr 1000 ------- 0 2.0 3.0 164 168
+ 0.74 2 3 cbr 1000 ------- 0 2.0 3.0 180 186
- 0.74 2 3 cbr 1000 ------- 0 2.0 3.0 180 186
r 0.7408 2 3 cbr 1000 ------- 0 2.0 3.0 165 169
+ 0.741333 2 3 cbr 1000 ------- 0 2.0 3.0 181 187
- 0.741333 2 3 cbr 1000 ------- 0 2.0 3.0 181 187
r 0.742133 2 3 cbr 1000 ------- 0 2.0 3.0 166 170
+ 0.742667 2 3 cbr 1000 ------- 0 2.0 3.0 182 188
- 0.742667 2 3 cbr 1000 ------- 0 2.0 3.0 182 188
r 0.743467 2 3 cbr 1000 ------- 0 2.0 3.0 167 171
+ 0.744 2 3 cbr 1000 ------- 0 2.0 3.0 183 189
- 0.744 2 3 cbr 1000 ------- 0 2.0 3.0 183 189
r 0.7448 2 3 cbr 1000 ------- 0 2.0 3.0 168 174
+ 0.745333 2 3 cbr 1000 ------- 0 2.0 3.0 184 190
- 0.745333 2 3 cbr 1000 ------- 0 2.0 3.0 184 190
r 0.746133 2 3 cbr 1000 ------- 0 2.0 3.0 169 175
+ 0.746667 2 3 cbr 1000 ------- 0 2.0 3.0 185 191
- 0.746667 2 3 cbr 1000 ------- 0 2.0 3.0 185 191
r 0.747467 2 3 cbr 1000 ------- 0 2.0 3.0 170 176
+ 0.748 2 3 cbr 1000 ------- 0 2.0 3.0 186 192
- 0.748 2 3 cbr 1000 ------- 0 2.0 3.0 186 192
r 0.7488 2 3 cbr 1000 ------- 0 2.0 3.0 171 177
+ 0.749333 2 3 cbr 1000 ------- 0 2.0 3.0 187 193
- 0.749333 2 3 cbr 1000 ------- 0 2.0 3.0 187 193
r 0.750133 2 3 cbr 1000 ------- 0 2.0 3.0 172 178
+ 0.750667 2 3 cbr 1000 ------- 0 2.0 3.0 188 194
- 0.750667 2 3 cbr 1000 ------- 0 2.0 3.0 188 194
r 0.751467 2 3 cbr 1000 ------- 0 2.0 3.0 173 179
+ 0.752 2 3 cbr 1000 ------- 0 2.0 3.0 189 195
- 0.752 2 3 cbr 1000 ------- 0 2.0 3.0 189 195
r 0.7528 2 3 cbr 1000 ------- 0 2.0 3.0 174 180
r 0.753195 3 2 ack 40 ------- 1 4.0 0.0 1 172
+ 0.753195 2 0 ack 40 ------- 1 4.0 0.0 1 172
- 0.753195 2 0 ack 40 ------- 1 4.0 0.0 1 172
+ 0.753333 2 3 cbr 1000 ------- 0 2.0 3.0 190 196
- 0.753333 2 3 cbr 1000 ------- 0 2.0 3.0 190 196
r 0.754027 3 2 ack 40 ------- 1 4.0 0.0 2 173
+ 0.754027 2 0 ack 40 ------- 1 4.0 0.0 2 173
- 0.754027 2 0 ack 40 ------- 1 4.0 0.0 2 173
r 0.754133 2 3 cbr 1000 ------- 0 2.0 3.0 175 181
+ 0.754667 2 3 cbr 1000 ------- 0 2.0 3.0 191 197
- 0.754667 2 3 cbr 1000 ------- 0 2.0 3.0 191 197
r 0.755467 2 3 cbr 1000 ------- 0 2.0 3.0 176 182
+ 0.756 2 3 cbr 1000 ------- 0 2.0 3.0 192 198
- 0.756 2 3 cbr 1000 ------- 0 2.0 3.0 192 198
r 0.7568 2 3 cbr 1000 ------- 0 2.0 3.0 177 183
+ 0.757333 2 3 cbr 1000 ------- 0 2.0 3.0 193 199
- 0.757333 2 3 cbr 1000 ------- 0 2.0 3.0 193 199
r 0.758133 2 3 cbr 1000 ------- 0 2.0 3.0 178 184
+ 0.758667 2 3 cbr 1000 ------- 0 2.0 3.0 194 200
- 0.758667 2 3 cbr 1000 ------- 0 2.0 3.0 194 200
r 0.759467 2 3 cbr 1000 ------- 0 2.0 3.0 179 185
+ 0.76 2 3 cbr 1000 ------- 0 2.0 3.0 195 201
- 0.76 2 3 cbr 1000 ------- 0 2.0 3.0 195 201
r 0.7608 2 3 cbr 1000 ------- 0 2.0 3.0 180 186
+ 0.761333 2 3 cbr 1000 ------- 0 2.0 3.0 196 202
- 0.761333 2 3 cbr 1000 ------- 0 2.0 3.0 196 202