+ 0.5 2 3 cbr 1000 ------- 0 2.0 3.0 0 0
- 0.5 2 3 cbr 1000 ------- 0 2.0 3.0 0 0
+ 0.502 2 3 cbr 1000 ------- 0 2.0 3.0 1 1
- 0.502 2 3 cbr 1000 ------- 0 2.0 3.0 1 1
+ 0.504 2 3 cbr 1000 ------- 0 2.0 3.0 2 2
- 0.504 2 3 cbr 1000 ------- 0 2.0 3.0 2 2
+ 0.506 2 3 cbr 1000 ------- 0 2.0 3.0 3 3
- 0.506 2 3 cbr 1000 ------- 0 2.0 3.0 3 3
+ 0.508 2 3 cbr 1000 ------- 0 2.0 3.0 4 4
- 0.508 2 3 cbr 1000 ------- 0 2.0 3.0 4 4
+ 0.51 2 3 cbr 1000 ------- 0 2.0 3.0 5 5
- 0.51 2 3 cbr 1000 ------- 0 2.0 3.0 5 5
+ 0.512 2 3 cbr 1000 ------- 0 2.0 3.0 6 6
- 0.512 2 3 cbr 1000 ------- 0 2.0 3.0 6 6
+ 0.514 2 3 cbr 1000 ------- 0 2.0 3.0 7 7
- 0.514 2 3 cbr 1000 ------- 0 2.0 3.0 7 7
+ 0.516 2 3 cbr 1000 ------- 0 2.0 3.0 8 8
- 0.516 2 3 cbr 1000 ------- 0 2.0 3.0 8 8
+ 0.518 2 3 cbr 1000 ------- 0 2.0 3.0 9 9
- 0.518 2 3 cbr 1000 ------- 0 2.0 3.0 9 9
+ 0.52 2 3 cbr 1000 ------- 0 2.0 3.0 10 10
- 0.52 2 3 cbr 1000 ------- 0 2.0 3.0 10 10
r 0.5208 2 3 cbr 1000 ------- 0 2.0 3.0 0 0
+ 0.522 2 3 cbr 1000 ------- 0 2.0 3.0 11 11
- 0.522 2 3 cbr 1000 ------- 0 2.0 3.0 11 11
r 0.5228 2 3 cbr 1000 ------- 0 2.0 3.0 1 1
+ 0.524 2 3 cbr 1000 ------- 0 2.0 3.0 12 12
- 0.524 2 3 cbr 1000 ------- 0 2.0 3.0 12 12
r 0.5248 2 3 cbr 1000 ------- 0 2.0 3.0 2 2
+ 0.526 2 3 cbr 1000 ------- 0 2.0 3.0 13 13
- 0.526 2 3 cbr 1000 ------- 0 2.0 3.0 13 13
r 0.5268 2 3 cbr 1000 ------- 0 2.0 3.0 3 3
+ 0.528 2 3 cbr 1000 ------- 0 2.0 3.0 14 14
- 0.528 2 3 cbr 1000 ------- 0 2.0 3.0 14 14
r 0.5288 2 3 cbr 1000 ------- 0 2.0 3.0 4 4
+ 0.53 2 3 cbr 1000 ------- 0 2.0 3.0 15 15
- 0.53 2 3 cbr 1000 ------- 0 2.0 3.0 15 15
r 0.5308 2 3 cbr 1000 ------- 0 2.0 3.0 5 5
+ 0.532 2 3 cbr 1000 ------- 0 2.0 3.0 16 16
- 0.532 2 3 cbr 1000 ------- 0 2.0 3.0 16 16
r 0.5328 2 3 cbr 1000 ------- 0 2.0 3.0 6 6
+ 0.534 2 3 cbr 1000 ------- 0 2.0 3.0 17 17
- 0.534 2 3 cbr 1000 ------- 0 2.0 3.0 17 17
r 0.5348 2 3 cbr 1000 ------- 0 2.0 3.0 7 7
+ 0.536 2 3 cbr 1000 ------- 0 2.0 3.0 18 18
- 0.536 2 3 cbr 1000 ------- 0 2.0 3.0 18 18
r 0.5368 2 3 cbr 1000 ------- 0 2.0 3.0 8 8
+ 0.538 2 3 cbr 1000 ------- 0 2.0 3.0 19 19
- 0.538 2 3 cbr 1000 ------- 0 2.0 3.0 19 19
r 0.5388 2 3 cbr 1000 ------- 0 2.0 3.0 9 9
+ 0.54 2 3 cbr 1000 ------- 0 2.0 3.0 20 20
- 0.54 2 3 cbr 1000 ------- 0 2.0 3.0 20 20
r 0.5408 2 3 cbr 1000 ------- 0 2.0 3.0 10 10
+ 0.542 2 3 cbr 1000 ------- 0 2.0 3.0 21 21
- 0.542 2 3 cbr 1000 ------- 0 2.0 3.0 21 21
r 0.5428 2 3 cbr 1000 ------- 0 2.0 3.0 11 11
+ 0.544 2 3 cbr 1000 ------- 0 2.0 3.0 22 22
- 0.544 2 3 cbr 1000 ------- 0 2.0 3.0 22 22
r 0.5448 2 3 cbr 1000 ------- 0 2.0 3.0 12 12
+ 0.546 2 3 cbr 1000 ------- 0 2.0 3.0 23 23
- 0.546 2 3 cbr 1000 ------- 0 2.0 3.0 23 23
r 0.5468 2 3 cbr 1000 ------- 0 2.0 3.0 13 13
+ 0.548 2 3 cbr 1000 ------- 0 2.0 3.0 24 24
- 0.548 2 3 cbr 1000 ------- 0 2.0 3.0 24 24
r 0.5488 2 3 cbr 1000 ------- 0 2.0 3.0 14 14
+ 0.55 2 3 cbr 1000 ------- 0 2.0 3.0 25 25
- 0.55 2 3 cbr 1000 ------- 0 2.0 3.0 25 25
r 0.5508 2 3 cbr 1000 ------- 0 2.0 3.0 15 15
+ 0.552 2 3 cbr 1000 ------- 0 2.0 3.0 26 26
- 0.552 2 3 cbr 1000 ------- 0 2.0 3.0 26 26
r 0.5528 2 3 cbr 1000 ------- 0 2.0 3.0 16 16
+ 0.554 2 3 cbr 1000 ------- 0 2.0 3.0 27 27
- 0.554 2 3 cbr 1000 ------- 0 2.0 3.0 27 27
r 0.5548 2 3 cbr 1000 ------- 0 2.0 3.0 17 17
+ 0.556 2 3 cbr 1000 ------- 0 2.0 3.0 28 28
- 0.556 2 3 cbr 1000 ------- 0 2.0 3.0 28 28
r 0.5568 2 3 cbr 1000 ------- 0 2.0 3.0 18 18
+ 0.558 2 3 cbr 1000 ------- 0 2.0 3.0 29 29
- 0.558 2 3 cbr 1000 ------- 0 2.0 3.0 29 29
r 0.5588 2 3 cbr 1000 ------- 0 2.0 3.0 19 19
+ 0.56 2 3 cbr 1000 ------- 0 2.0 3.0 30 30
- 0.56 2 3 cbr 1000 ------- 0 2.0 3.0 30 30
r 0.5608 2 3 cbr 1000 ------- 0 2.0 3.0 20 20
+ 0.562 2 3 cbr 1000 ------- 0 2.0 3.0 31 31
- 0.562 2 3 cbr 1000 ------- 0 2.0 3.0 31 31
r 0.5628 2 3 cbr 1000 ------- 0 2.0 3.0 21 21
+ 0.564 2 3 cbr 1000 ------- 0 2.0 3.0 32 32
- 0.564 2 3 cbr 1000 ------- 0 2.0 3.0 32 32
r 0.5648 2 3 cbr 1000 ------- 0 2.0 3.0 22 22
+ 0.566 2 3 cbr 1000 ------- 0 2.0 3.0 33 33
- 0.566 2 3 cbr 1000 ------- 0 2.0 3.0 33 33
r 0.5668 2 3 cbr 1000 ------- 0 2.0 3.0 23 23
+ 0.568 2 3 cbr 1000 ------- 0 2.0 3.0 34 34
- 0.568 2 3 cbr 1000 ------- 0 2.0 3.0 34 34
r 0.5688 2 3 cbr 1000 ------- 0 2.0 3.0 24 24
+ 0.57 2 3 cbr 1000 ------- 0 2.0 3.0 35 35
- 0.57 2 3 cbr 1000 ------- 0 2.0 3.0 35 35
r 0.5708 2 3 cbr 1000 ------- 0 2.0 3.0 25 25
+ 0.572 2 3 cbr 1000 ------- 0 2.0 3.0 36 36
- 0.572 2 3 cbr 1000 ------- 0 2.0 3.0 36 36
r 0.5728 2 3 cbr 1000 ------- 0 2.0 3.0 26 26
+ 0.574 2 3 cbr 1000 ------- 0 2.0 3.0 37 37
- 0.574 2 3 cbr 1000 ------- 0 2.0 3.0 37 37
r 0.5748 2 3 cbr 1000 ------- 0 2.0 3.0 27 27
+ 0.576 2 3 cbr 1000 ------- 0 2.0 3.0 38 38
- 0.576 2 3 cbr 1000 ------- 0 2.0 3.0 38 38
r 0.5768 2 3 cbr 1000 ------- 0 2.0 3.0 28 28
+ 0.578 2 3 cbr 1000 ------- 0 2.0 3.0 39 39
- 0.578 2 3 cbr 1000 ------- 0 2.0 3.0 39 39
r 0.5788 2 3 cbr 1000 ------- 0 2.0 3.0 29 29
+ 0.58 2 3 cbr 1000 ------- 0 2.0 3.0 40 40
- 0.58 2 3 cbr 1000 ------- 0 2.0 3.0 40 40
r 0.5808 2 3 cbr 1000 ------- 0 2.0 3.0 30 30
+ 0.582 2 3 cbr 1000 ------- 0 2.0 3.0 41 41
- 0.582 2 3 cbr 1000 ------- 0 2.0 3.0 41 41
r 0.5828 2 3 cbr 1000 ------- 0 2.0 3.0 31 31
+ 0.584 2 3 cbr 1000 ------- 0 2.0 3.0 42 42
- 0.584 2 3 cbr 1000 ------- 0 2.0 3.0 42 42
r 0.5848 2 3 cbr 1000 ------- 0 2.0 3.0 32 32
+ 0.586 2 3 cbr 1000 ------- 0 2.0 3.0 43 43
- 0.586 2 3 cbr 1000 ------- 0 2.0 3.0 43 43
r 0.5868 2 3 cbr 1000 ------- 0 2.0 3.0 33 33
+ 0.588 2 3 cbr 1000 ------- 0 2.0 3.0 44 44
- 0.588 2 3 cbr 1000 ------- 0 2.0 3.0 44 44
r 0.5888 2 3 cbr 1000 ------- 0 2.0 3.0 34 34
+ 0.59 2 3 cbr 1000 ------- 0 2.0 3.0 45 45
- 0.59 2 3 cbr 1000 ------- 0 2.0 3.0 45 45
r 0.5908 2 3 cbr 1000 ------- 0 2.0 3.0 35 35
+ 0.592 2 3 cbr 1000 ------- 0 2.0 3.0 46 46
- 0.592 2 3 cbr 1000 ------- 0 2.0 3.0 46 46
r 0.5928 2 3 cbr 1000 ------- 0 2.0 3.0 36 36
+ 0.594 2 3 cbr 1000 ------- 0 2.0 3.0 47 47
- 0.594 2 3 cbr 1000 ------- 0 2.0 3.0 47 47
r 0.5948 2 3 cbr 1000 ------- 0 2.0 3.0 37 37
+ 0.596 2 3 cbr 1000 ------- 0 2.0 3.0 48 48
- 0.596 2 3 cbr 1000 ------- 0 2.0 3.0 48 48
r 0.5968 2 3 cbr 1000 ------- 0 2.0 3.0 38 38
+ 0.598 2 3 cbr 1000 ------- 0 2.0 3.0 49 49
- 0.598 2 3 cbr 1000 ------- 0 2.0 3.0 49 49
r 0.5988 2 3 cbr 1000 ------- 0 2.0 3.0 39 39
+ 0.6 0 2 tcp 40 ------- 1 0.0 4.0 0 50
- 0.6 0 2 tcp 40 ------- 1 0.0 4.0 0 50
+ 0.6 2 3 cbr 1000 ------- 0 2.0 3.0 50 51
- 0.6 2 3 cbr 1000 ------- 0 2.0 3.0 50 51
r 0.6008 2 3 cbr 1000 ------- 0 2.0 3.0 40 40
+ 0.602 2 3 cbr 1000 ------- 0 2.0 3.0 51 52
- 0.602 2 3 cbr 1000 ------- 0 2.0 3.0 51 52
r 0.6028 2 3 cbr 1000 ------- 0 2.0 3.0 41 41
+ 0.604 2 3 cbr 1000 ------- 0 2.0 3.0 52 53
- 0.604 2 3 cbr 1000 ------- 0 2.0 3.0 52 53
r 0.6048 2 3 cbr 1000 ------- 0 2.0 3.0 42 42
+ 0.606 2 3 cbr 1000 ------- 0 2.0 3.0 53 54
- 0.606 2 3 cbr 1000 ------- 0 2.0 3.0 53 54
r 0.6068 2 3 cbr 1000 ------- 0 2.0 3.0 43 43
+ 0.608 2 3 cbr 1000 ------- 0 2.0 3.0 54 55
- 0.608 2 3 cbr 1000 ------- 0 2.0 3.0 54 55
r 0.6088 2 3 cbr 1000 ------- 0 2.0 3.0 44 44
+ 0.61 2 3 cbr 1000 ------- 0 2.0 3.0 55 56
- 0.61 2 3 cbr 1000 ------- 0 2.0 3.0 55 56
r 0.610032 0 2 tcp 40 ------- 1 0.0 4.0 0 50
+ 0.610032 2 3 tcp 40 ------- 1 0.0 4.0 0 50
r 0.6108 2 3 cbr 1000 ------- 0 2.0 3.0 45 45
- 0.6108 2 3 tcp 40 ------- 1 0.0 4.0 0 50
+ 0.612 2 3 cbr 1000 ------- 0 2.0 3.0 56 57
- 0.612 2 3 cbr 1000 ------- 0 2.0 3.0 56 57
r 0.6128 2 3 cbr 1000 ------- 0 2.0 3.0 46 46
+ 0.614 2 3 cbr 1000 ------- 0 2.0 3.0 57 58
- 0.614 2 3 cbr 1000 ------- 0 2.0 3.0 57 58
r 0.6148 2 3 cbr 1000 ------- 0 2.0 3.0 47 47
+ 0.616 2 3 cbr 1000 ------- 0 2.0 3.0 58 59
- 0.616 2 3 cbr 1000 ------- 0 2.0 3.0 58 59
r 0.6168 2 3 cbr 1000 ------- 0 2.0 3.0 48 48
+ 0.618 2 3 cbr 1000 ------- 0 2.0 3.0 59 60
- 0.618 2 3 cbr 1000 ------- 0 2.0 3.0 59 60
r 0.6188 2 3 cbr 1000 ------- 0 2.0 3.0 49 49
+ 0.62 2 3 cbr 1000 ------- 0 2.0 3.0 60 61
- 0.62 2 3 cbr 1000 ------- 0 2.0 3.0 60 61
r 0.6208 2 3 cbr 1000 ------- 0 2.0 3.0 50 51
+ 0.622 2 3 cbr 1000 ------- 0 2.0 3.0 61 62
- 0.622 2 3 cbr 1000 ------- 0 2.0 3.0 61 62
r 0.6228 2 3 cbr 1000 ------- 0 2.0 3.0 51 52
+ 0.624 2 3 cbr 1000 ------- 0 2.0 3.0 62 63
- 0.624 2 3 cbr 1000 ------- 0 2.0 3.0 62 63
r 0.6248 2 3 cbr 1000 ------- 0 2.0 3.0 52 53
+ 0.626 2 3 cbr 1000 ------- 0 2.0 3.0 63 64
- 0.626 2 3 cbr 1000 ------- 0 2.0 3.0 63 64
r 0.6268 2 3 cbr 1000 ------- 0 2.0 3.0 53 54
+ 0.628 2 3 cbr 1000 ------- 0 2.0 3.0 64 65
- 0.628 2 3 cbr 1000 ------- 0 2.0 3.0 64 65
r 0.6288 2 3 cbr 1000 ------- 0 2.0 3.0 54 55
+ 0.63 2 3 cbr 1000 ------- 0 2.0 3.0 65 66
- 0.63 2 3 cbr 1000 ------- 0 2.0 3.0 65 66
r 0.6308 2 3 cbr 1000 ------- 0 2.0 3.0 55 56
r 0.630832 2 3 tcp 40 ------- 1 0.0 4.0 0 50
+ 0.630832 3 4 tcp 40 ------- 1 0.0 4.0 0 50
- 0.630832 3 4 tcp 40 ------- 1 0.0 4.0 0 50
+ 0.632 2 3 cbr 1000 ------- 0 2.0 3.0 66 67
- 0.632 2 3 cbr 1000 ------- 0 2.0 3.0 66 67
r 0.6328 2 3 cbr 1000 ------- 0 2.0 3.0 56 57
+ 0.634 2 3 cbr 1000 ------- 0 2.0 3.0 67 68
- 0.634 2 3 cbr 1000 ------- 0 2.0 3.0 67 68
r 0.6348 2 3 cbr 1000 ------- 0 2.0 3.0 57 58
+ 0.636 2 3 cbr 1000 ------- 0 2.0 3.0 68 69
- 0.636 2 3 cbr 1000 ------- 0 2.0 3.0 68 69
r 0.6368 2 3 cbr 1000 ------- 0 2.0 3.0 58 59
+ 0.638 2 3 cbr 1000 ------- 0 2.0 3.0 69 70
- 0.638 2 3 cbr 1000 ------- 0 2.0 3.0 69 70
r 0.6388 2 3 cbr 1000 ------- 0 2.0 3.0 59 60
+ 0.64 2 3 cbr 1000 ------- 0 2.0 3.0 70 71
- 0.64 2 3 cbr 1000 ------- 0 2.0 3.0 70 71
r 0.6408 2 3 cbr 1000 ------- 0 2.0 3.0 60 61
r 0.640864 3 4 tcp 40 ------- 1 0.0 4.0 0 50
+ 0.640864 4 3 ack 40 ------- 1 4.0 0.0 0 72
- 0.640864 4 3 ack 40 ------- 1 4.0 0.0 0 72
+ 0.642 2 3 cbr 1000 ------- 0 2.0 3.0 71 73
- 0.642 2 3 cbr 1000 ------- 0 2.0 3.0 71 73
r 0.6428 2 3 cbr 1000 ------- 0 2.0 3.0 61 62
+ 0.644 2 3 cbr 1000 ------- 0 2.0 3.0 72 74
- 0.644 2 3 cbr 1000 ------- 0 2.0 3.0 72 74
r 0.6448 2 3 cbr 1000 ------- 0 2.0 3.0 62 63
+ 0.646 2 3 cbr 1000 ------- 0 2.0 3.0 73 75
- 0.646 2 3 cbr 1000 ------- 0 2.0 3.0 73 75
r 0.6468 2 3 cbr 1000 ------- 0 2.0 3.0 63 64
+ 0.648 2 3 cbr 1000 ------- 0 2.0 3.0 74 76
- 0.648 2 3 cbr 1000 ------- 0 2.0 3.0 74 76
r 0.6488 2 3 cbr 1000 ------- 0 2.0 3.0 64 65
+ 0.65 2 3 cbr 1000 ------- 0 2.0 3.0 75 77
- 0.65 2 3 cbr 1000 ------- 0 2.0 3.0 75 77
r 0.6508 2 3 cbr 1000 ------- 0 2.0 3.0 65 66
r 0.650896 4 3 ack 40 ------- 1 4.0 0.0 0 72
+ 0.650896 3 2 ack 40 ------- 1 4.0 0.0 0 72
- 0.650896 3 2 ack 40 ------- 1 4.0 0.0 0 72
+ 0.652 2 3 cbr 1000 ------- 0 2.0 3.0 76 78
- 0.652 2 3 cbr 1000 ------- 0 2.0 3.0 76 78
r 0.6528 2 3 cbr 1000 ------- 0 2.0 3.0 66 67
+ 0.654 2 3 cbr 1000 ------- 0 2.0 3.0 77 79
- 0.654 2 3 cbr 1000 ------- 0 2.0 3.0 77 79
r 0.6548 2 3 cbr 1000 ------- 0 2.0 3.0 67 68
+ 0.656 2 3 cbr 1000 ------- 0 2.0 3.0 78 80
- 0.656 2 3 cbr 1000 ------- 0 2.0 3.0 78 80
r 0.6568 2 3 cbr 1000 ------- 0 2.0 3.0 68 69
+ 0.658 2 3 cbr 1000 ------- 0 2.0 3.0 79 81
- 0.658 2 3 cbr 1000 ------- 0 2.0 3.0 79 81
r 0.6588 2 3 cbr 1000 ------- 0 2.0 3.0 69 70
+ 0.66 2 3 cbr 1000 ------- 0 2.0 3.0 80 82
- 0.66 2 3 cbr 1000 ------- 0 2.0 3.0 80 82
r 0.6608 2 3 cbr 1000 ------- 0 2.0 3.0 70 71
+ 0.662 2 3 cbr 1000 ------- 0 2.0 3.0 81 83
- 0.662 2 3 cbr 1000 ------- 0 2.0 3.0 81 83
r 0.6628 2 3 cbr 1000 ------- 0 2.0 3.0 71 73
+ 0.664 2 3 cbr 1000 ------- 0 2.0 3.0 82 84
- 0.664 2 3 cbr 1000 ------- 0 2.0 3.0 82 84
r 0.6648 2 3 cbr 1000 ------- 0 2.0 3.0 72 74
+ 0.666 2 3 cbr 1000 ------- 0 2.0 3.0 83 85
- 0.666 2 3 cbr 1000 ------- 0 2.0 3.0 83 85
r 0.6668 2 3 cbr 1000 ------- 0 2.0 3.0 73 75
+ 0.668 2 3 cbr 1000 ------- 0 2.0 3.0 84 86
- 0.668 2 3 cbr 1000 ------- 0 2.0 3.0 84 86
r 0.6688 2 3 cbr 1000 ------- 0 2.0 3.0 74 76
+ 0.67 2 3 cbr 1000 ------- 0 2.0 3.0 85 87
- 0.67 2 3 cbr 1000 ------- 0 2.0 3.0 85 87
r 0.6708 2 3 cbr 1000 ------- 0 2.0 3.0 75 77
r 0.670928 3 2 ack 40 ------- 1 4.0 0.0 0 72
+ 0.670928 2 0 ack 40 ------- 1 4.0 0.0 0 72
- 0.670928 2 0 ack 40 ------- 1 4.0 0.0 0 72
+ 0.672 2 3 cbr 1000 ------- 0 2.0 3.0 86 88
- 0.672 2 3 cbr 1000 ------- 0 2.0 3.0 86 88
r 0.6728 2 3 cbr 1000 ------- 0 2.0 3.0 76 78
+ 0.674 2 3 cbr 1000 ------- 0 2.0 3.0 87 89
- 0.674 2 3 cbr 1000 ------- 0 2.0 3.0 87 89
r 0.6748 2 3 cbr 1000 ------- 0 2.0 3.0 77 79
+ 0.676 2 3 cbr 1000 ------- 0 2.0 3.0 88 90
- 0.676 2 3 cbr 1000 ------- 0 2.0 3.0 88 90
r 0.6768 2 3 cbr 1000 ------- 0 2.0 3.0 78 80
+ 0.678 2 3 cbr 1000 ------- 0 2.0 3.0 89 91
- 0.678 2 3 cbr 1000 ------- 0 2.0 3.0 89 91
r 0.6788 2 3 cbr 1000 ------- 0 2.0 3.0 79 81
+ 0.68 2 3 cbr 1000 ------- 0 2.0 3.0 90 92
- 0.68 2 3 cbr 1000 ------- 0 2.0 3.0 90 92
r 0.6808 2 3 cbr 1000 ------- 0 2.0 3.0 80 82
r 0.68096 2 0 ack 40 ------- 1 4.0 0.0 0 72
+ 0.68096 0 2 tcp 1040 ------- 1 0.0 4.0 1 93
- 0.68096 0 2 tcp 1040 ------- 1 0.0 4.0 1 93
+ 0.68096 0 2 tcp 1040 ------- 1 0.0 4.0 2 94
- 0.681792 0 2 tcp 1040 ------- 1 0.0 4.0 2 94
+ 0.682 2 3 cbr 1000 ------- 0 2.0 3.0 91 95
- 0.682 2 3 cbr 1000 ------- 0 2.0 3.0 91 95
r 0.6828 2 3 cbr 1000 ------- 0 2.0 3.0 81 83
+ 0.684 2 3 cbr 1000 ------- 0 2.0 3.0 92 96
- 0.684 2 3 cbr 1000 ------- 0 2.0 3.0 92 96
r 0.6848 2 3 cbr 1000 ------- 0 2.0 3.0 82 84
+ 0.686 2 3 cbr 1000 ------- 0 2.0 3.0 93 97
- 0.686 2 3 cbr 1000 ------- 0 2.0 3.0 93 97
r 0.6868 2 3 cbr 1000 ------- 0 2.0 3.0 83 85
+ 0.688 2 3 cbr 1000 ------- 0 2.0 3.0 94 98
- 0.688 2 3 cbr 1000 ------- 0 2.0 3.0 94 98
r 0.6888 2 3 cbr 1000 ------- 0 2.0 3.0 84 86
+ 0.69 2 3 cbr 1000 ------- 0 2.0 3.0 95 99
- 0.69 2 3 cbr 1000 ------- 0 2.0 3.0 95 99
r 0.6908 2 3 cbr 1000 ------- 0 2.0 3.0 85 87
r 0.691792 0 2 tcp 1040 ------- 1 0.0 4.0 1 93
+ 0.691792 2 3 tcp 1040 ------- 1 0.0 4.0 1 93
- 0.691792 2 3 tcp 1040 ------- 1 0.0 4.0 1 93
+ 0.692 2 3 cbr 1000 ------- 0 2.0 3.0 96 100
r 0.692624 0 2 tcp 1040 ------- 1 0.0 4.0 2 94
+ 0.692624 2 3 tcp 1040 ------- 1 0.0 4.0 2 94
- 0.692624 2 3 cbr 1000 ------- 0 2.0 3.0 96 100
r 0.6928 2 3 cbr 1000 ------- 0 2.0 3.0 86 88
- 0.693424 2 3 tcp 1040 ------- 1 0.0 4.0 2 94
+ 0.694 2 3 cbr 1000 ------- 0 2.0 3.0 97 101
- 0.694256 2 3 cbr 1000 ------- 0 2.0 3.0 97 101
r 0.6948 2 3 cbr 1000 ------- 0 2.0 3.0 87 89
+ 0.696 2 3 cbr 1000 ------- 0 2.0 3.0 98 102
- 0.696 2 3 cbr 1000 ------- 0 2.0 3.0 98 102
r 0.6968 2 3 cbr 1000 ------- 0 2.0 3.0 88 90
+ 0.698 2 3 cbr 1000 ------- 0 2.0 3.0 99 103
- 0.698 2 3 cbr 1000 ------- 0 2.0 3.0 99 103
r 0.6988 2 3 cbr 1000 ------- 0 2.0 3.0 89 91
+ 0.7 2 3 cbr 1000 ------- 0 2.0 3.0 100 104
- 0.7 2 3 cbr 1000 ------- 0 2.0 3.0 100 104
r 0.7008 2 3 cbr 1000 ------- 0 2.0 3.0 90 92
+ 0.702 2 3 cbr 1000 ------- 0 2.0 3.0 101 105
- 0.702 2 3 cbr 1000 ------- 0 2.0 3.0 101 105
r 0.7028 2 3 cbr 1000 ------- 0 2.0 3.0 91 95
+ 0.704 2 3 cbr 1000 ------- 0 2.0 3.0 102 106
- 0.704 2 3 cbr 1000 ------- 0 2.0 3.0 102 106
r 0.7048 2 3 cbr 1000 ------- 0 2.0 3.0 92 96
+ 0.706 2 3 cbr 1000 ------- 0 2.0 3.0 103 107
- 0.706 2 3 cbr 1000 ------- 0 2.0 3.0 103 107
r 0.7068 2 3 cbr 1000 ------- 0 2.0 3.0 93 97
+ 0.708 2 3 cbr 1000 ------- 0 2.0 3.0 104 108
- 0.708 2 3 cbr 1000 ------- 0 2.0 3.0 104 108
r 0.7088 2 3 cbr 1000 ------- 0 2.0 3.0 94 98
+ 0.71 2 3 cbr 1000 ------- 0 2.0 3.0 105 109
- 0.71 2 3 cbr 1000 ------- 0 2.0 3.0 105 109
r 0.7108 2 3 cbr 1000 ------- 0 2.0 3.0 95 99
+ 0.712 2 3 cbr 1000 ------- 0 2.0 3.0 106 110
- 0.712 2 3 cbr 1000 ------- 0 2.0 3.0 106 110
r 0.712624 2 3 tcp 1040 ------- 1 0.0 4.0 1 93
+ 0.712624 3 4 tcp 1040 ------- 1 0.0 4.0 1 93
- 0.712624 3 4 tcp 1040 ------- 1 0.0 4.0 1 93
r 0.713424 2 3 cbr 1000 ------- 0 2.0 3.0 96 100
+ 0.714 2 3 cbr 1000 ------- 0 2.0 3.0 107 111
- 0.714 2 3 cbr 1000 ------- 0 2.0 3.0 107 111
r 0.714256 2 3 tcp 1040 ------- 1 0.0 4.0 2 94
+ 0.714256 3 4 tcp 1040 ------- 1 0.0 4.0 2 94
- 0.714256 3 4 tcp 1040 ------- 1 0.0 4.0 2 94
r 0.715056 2 3 cbr 1000 ------- 0 2.0 3.0 97 101
+ 0.716 2 3 cbr 1000 ------- 0 2.0 3.0 108 112
- 0.716 2 3 cbr 1000 ------- 0 2.0 3.0 108 112
r 0.7168 2 3 cbr 1000 ------- 0 2.0 3.0 98 102
+ 0.718 2 3 cbr 1000 ------- 0 2.0 3.0 109 113
- 0.718 2 3 cbr 1000 ------- 0 2.0 3.0 109 113
r 0.7188 2 3 cbr 1000 ------- 0 2.0 3.0 99 103
+ 0.72 2 3 cbr 1000 ------- 0 2.0 3.0 110 114
- 0.72 2 3 cbr 1000 ------- 0 2.0 3.0 110 114
r 0.7208 2 3 cbr 1000 ------- 0 2.0 3.0 100 104
+ 0.722 2 3 cbr 1000 ------- 0 2.0 3.0 111 115
- 0.722 2 3 cbr 1000 ------- 0 2.0 3.0 111 115
r 0.7228 2 3 cbr 1000 ------- 0 2.0 3.0 101 105
r 0.723456 3 4 tcp 1040 ------- 1 0.0 4.0 1 93
+ 0.723456 4 3 ack 40 ------- 1 4.0 0.0 1 116
- 0.723456 4 3 ack 40 ------- 1 4.0 0.0 1 116
+ 0.724 2 3 cbr 1000 ------- 0 2.0 3.0 112 117
- 0.724 2 3 cbr 1000 ------- 0 2.0 3.0 112 117
r 0.7248 2 3 cbr 1000 ------- 0 2.0 3.0 102 106
r 0.725088 3 4 tcp 1040 ------- 1 0.0 4.0 2 94
+ 0.725088 4 3 ack 40 ------- 1 4.0 0.0 2 118
- 0.725088 4 3 ack 40 ------- 1 4.0 0.0 2 118
+ 0.726 2 3 cbr 1000 ------- 0 2.0 3.0 113 119
- 0.726 2 3 cbr 1000 ------- 0 2.0 3.0 113 119
r 0.7268 2 3 cbr 1000 ------- 0 2.0 3.0 103 107
+ 0.728 2 3 cbr 1000 ------- 0 2.0 3.0 114 120
- 0.728 2 3 cbr 1000 ------- 0 2.0 3.0 114 120
r 0.7288 2 3 cbr 1000 ------- 0 2.0 3.0 104 108
+ 0.73 2 3 cbr 1000 ------- 0 2.0 3.0 115 121
- 0.73 2 3 cbr 1000 ------- 0 2.0 3.0 115 121
r 0.7308 2 3 cbr 1000 ------- 0 2.0 3.0 105 109
+ 0.732 2 3 cbr 1000 ------- 0 2.0 3.0 116 122
- 0.732 2 3 cbr 1000 ------- 0 2.0 3.0 116 122
r 0.7328 2 3 cbr 1000 ------- 0 2.0 3.0 106 110
r 0.733488 4 3 ack 40 ------- 1 4.0 0.0 1 116
+ 0.733488 3 2 ack 40 ------- 1 4.0 0.0 1 116
- 0.733488 3 2 ack 40 ------- 1 4.0 0.0 1 116
+ 0.734 2 3 cbr 1000 ------- 0 2.0 3.0 117 123
- 0.734 2 3 cbr 1000 ------- 0 2.0 3.0 117 123
r 0.7348 2 3 cbr 1000 ------- 0 2.0 3.0 107 111
r 0.73512 4 3 ack 40 ------- 1 4.0 0.0 2 118
+ 0.73512 3 2 ack 40 ------- 1 4.0 0.0 2 118
- 0.73512 3 2 ack 40 ------- 1 4.0 0.0 2 118
+ 0.736 2 3 cbr 1000 ------- 0 2.0 3.0 118 124
- 0.736 2 3 cbr 1000 ------- 0 2.0 3.0 118 124
r 0.7368 2 3 cbr 1000 ------- 0 2.0 3.0 108 112
+ 0.738 2 3 cbr 1000 ------- 0 2.0 3.0 119 125
- 0.738 2 3 cbr 1000 ------- 0 2.0 3.0 119 125
r 0.7388 2 3 cbr 1000 ------- 0 2.0 3.0 109 113
+ 0.74 2 3 cbr 1000 ------- 0 2.0 3.0 120 126
- 0.74 2 3 cbr 1000 ------- 0 2.0 3.0 120 126
r 0.7408 2 3 cbr 1000 ------- 0 2.0 3.0 110 114
+ 0.742 2 3 cbr 1000 ------- 0 2.0 3.0 121 127
- 0.742 2 3 cbr 1000 ------- 0 2.0 3.0 121 127
r 0.7428 2 3 cbr 1000 ------- 0 2.0 3.0 111 115
+ 0.744 2 3 cbr 1000 ------- 0 2.0 3.0 122 128
- 0.744 2 3 cbr 1000 ------- 0 2.0 3.0 122 128
r 0.7448 2 3 cbr 1000 ------- 0 2.0 3.0 112 117
+ 0.746 2 3 cbr 1000 ------- 0 2.0 3.0 123 129
- 0.746 2 3 cbr 1000 ------- 0 2.0 3.0 123 129
r 0.7468 2 3 cbr 1000 ------- 0 2.0 3.0 113 119
+ 0.748 2 3 cbr 1000 ------- 0 2.0 3.0 124 130
- 0.748 2 3 cbr 1000 ------- 0 2.0 3.0 124 130
r 0.7488 2 3 cbr 1000 ------- 0 2.0 3.0 114 120
+ 0.75 2 3 cbr 1000 ------- 0 2.0 3.0 125 131
- 0.75 2 3 cbr 1000 ------- 0 2.0 3.0 125 131
r 0.7508 2 3 cbr 1000 ------- 0 2.0 3.0 115 121
+ 0.752 2 3 cbr 1000 ------- 0 2.0 3.0 126 132
- 0.752 2 3 cbr 1000 ------- 0 2.0 3.0 126 132
r 0.7528 2 3 cbr 1000 ------- 0 2.0 3.0 116 122
r 0.75352 3 2 ack 40 ------- 1 4.0 0.0 1 116
+ 0.75352 2 0 ack 40 ------- 1 4.0 0.0 1 116
- 0.75352 2 0 ack 40 ------- 1 4.0 0.0 1 116
+ 0.754 2 3 cbr 1000 ------- 0 2.0 3.0 127 133
- 0.754 2 3 cbr 1000 ------- 0 2.0 3.0 127 133
r 0.7548 2 3 cbr 1000 ------- 0 2.0 3.0 117 123
r 0.755152 3 2 ack 40 ------- 1 4.0 0.0 2 118
+ 0.755152 2 0 ack 40 ------- 1 4.0 0.0 2 118
- 0.755152 2 0 ack 40 ------- 1 4.0 0.0 2 118
+ 0.756 2 3 cbr 1000 ------- 0 2.0 3.0 128 134
- 0.756 2 3 cbr 1000 ------- 0 2.0 3.0 128 134
r 0.7568 2 3 cbr 1000 ------- 0 2.0 3.0 118 124
+ 0.758 2 3 cbr 1000 ------- 0 2.0 3.0 129 135
- 0.758 2 3 cbr 1000 ------- 0 2.0 3.0 129 135
r 0.7588 2 3 cbr 1000 ------- 0 2.0 3.0 119 125
+ 0.76 2 3 cbr 1000 ------- 0 2.0 3.0 130 136
- 0.76 2 3 cbr 1000 ------- 0 2.0 3.0 130 136
r 0.7608 2 3 cbr 1000 ------- 0 2.0 3.0 120 126
+ 0.762 2 3 cbr 1000 ------- 0 2.0 3.0 131 137
- 0.762 2 3 cbr 1000 ------- 0 2.0 3.0 131 137
r 0.7628 2 3 cbr 1000 ------- 0 2.0 3.0 121 127
r 0.763552 2 0 ack 40 ------- 1 4.0 0.0 1 116
+ 0.763552 0 2 tcp 1040 ------- 1 0.0 4.0 3 138
- 0.763552 0 2 tcp 1040 ------- 1 0.0 4.0 3 138
+ 0.763552 0 2 tcp 1040 ------- 1 0.0 4.0 4 139
+ 0.764 2 3 cbr 1000 ------- 0 2.0 3.0 132 140
- 0.764 2 3 cbr 1000 ------- 0 2.0 3.0 132 140
- 0.764384 0 2 tcp 1040 ------- 1 0.0 4.0 4 139
r 0.7648 2 3 cbr 1000 ------- 0 2.0 3.0 122 128
r 0.765184 2 0 ack 40 ------- 1 4.0 0.0 2 118
+ 0.765184 0 2 tcp 1040 ------- 1 0.0 4.0 5 141
+ 0.765184 0 2 tcp 1040 ------- 1 0.0 4.0 6 142
- 0.765216 0 2 tcp 1040 ------- 1 0.0 4.0 5 141
+ 0.766 2 3 cbr 1000 ------- 0 2.0 3.0 133 143
- 0.766 2 3 cbr 1000 ------- 0 2.0 3.0 133 143
- 0.766048 0 2 tcp 1040 ------- 1 0.0 4.0 6 142
r 0.7668 2 3 cbr 1000 ------- 0 2.0 3.0 123 129
+ 0.768 2 3 cbr 1000 ------- 0 2.0 3.0 134 144
- 0.768 2 3 cbr 1000 ------- 0 2.0 3.0 134 144
r 0.7688 2 3 cbr 1000 ------- 0 2.0 3.0 124 130
+ 0.77 2 3 cbr 1000 ------- 0 2.0 3.0 135 145
- 0.77 2 3 cbr 1000 ------- 0 2.0 3.0 135 145
r 0.7708 2 3 cbr 1000 ------- 0 2.0 3.0 125 131
+ 0.772 2 3 cbr 1000 ------- 0 2.0 3.0 136 146
- 0.772 2 3 cbr 1000 ------- 0 2.0 3.0 136 146
r 0.7728 2 3 cbr 1000 ------- 0 2.0 3.0 126 132
+ 0.774 2 3 cbr 1000 ------- 0 2.0 3.0 137 147
- 0.774 2 3 cbr 1000 ------- 0 2.0 3.0 137 147
r 0.774384 0 2 tcp 1040 ------- 1 0.0 4.0 3 138
+ 0.774384 2 3 tcp 1040 ------- 1 0.0 4.0 3 138
r 0.7748 2 3 cbr 1000 ------- 0 2.0 3.0 127 133
- 0.7748 2 3 tcp 1040 ------- 1 0.0 4.0 3 138
r 0.775216 0 2 tcp 1040 ------- 1 0.0 4.0 4 139
+ 0.775216 2 3 tcp 1040 ------- 1 0.0 4.0 4 139
- 0.775632 2 3 tcp 1040 ------- 1 0.0 4.0 4 139
+ 0.776 2 3 cbr 1000 ------- 0 2.0 3.0 138 148
r 0.776048 0 2 tcp 1040 ------- 1 0.0 4.0 5 141
+ 0.776048 2 3 tcp 1040 ------- 1 0.0 4.0 5 141
- 0.776464 2 3 cbr 1000 ------- 0 2.0 3.0 138 148
r 0.7768 2 3 cbr 1000 ------- 0 2.0 3.0 128 134
r 0.77688 0 2 tcp 1040 ------- 1 0.0 4.0 6 142
+ 0.77688 2 3 tcp 1040 ------- 1 0.0 4.0 6 142
- 0.777264 2 3 tcp 1040 ------- 1 0.0 4.0 5 141
+ 0.778 2 3 cbr 1000 ------- 0 2.0 3.0 139 149
- 0.778096 2 3 tcp 1040 ------- 1 0.0 4.0 6 142
r 0.7788 2 3 cbr 1000 ------- 0 2.0 3.0 129 135
- 0.778928 2 3 cbr 1000 ------- 0 2.0 3.0 139 149
+ 0.78 2 3 cbr 1000 ------- 0 2.0 3.0 140 150
- 0.78 2 3 cbr 1000 ------- 0 2.0 3.0 140 150
r 0.7808 2 3 cbr 1000 ------- 0 2.0 3.0 130 136
+ 0.782 2 3 cbr 1000 ------- 0 2.0 3.0 141 151
- 0.782 2 3 cbr 1000 ------- 0 2.0 3.0 141 151
r 0.7828 2 3 cbr 1000 ------- 0 2.0 3.0 131 137
+ 0.784 2 3 cbr 1000 ------- 0 2.0 3.0 142 152
- 0.784 2 3 cbr 1000 ------- 0 2.0 3.0 142 152
r 0.7848 2 3 cbr 1000 ------- 0 2.0 3.0 132 140
+ 0.786 2 3 cbr 1000 ------- 0 2.0 3.0 143 153
- 0.786 2 3 cbr 1000 ------- 0 2.0 3.0 143 153
r 0.7868 2 3 cbr 1000 ------- 0 2.0 3.0 133 143
+ 0.788 2 3 cbr 1000 ------- 0 2.0 3.0 144 154
- 0.788 2 3 cbr 1000 ------- 0 2.0 3.0 144 154
r 0.7888 2 3 cbr 1000 ------- 0 2.0 3.0 134 144
+ 0.79 2 3 cbr 1000 ------- 0 2.0 3.0 145 155
- 0.79 2 3 cbr 1000 ------- 0 2.0 3.0 145 155
r 0.7908 2 3 cbr 1000 ------- 0 2.0 3.0 135 145
+ 0.792 2 3 cbr 1000 ------- 0 2.0 3.0 146 156
- 0.792 2 3 cbr 1000 ------- 0 2.0 3.0 146 156
r 0.7928 2 3 cbr 1000 ------- 0 2.0 3.0 136 146
+ 0.794 2 3 cbr 1000 ------- 0 2.0 3.0 147 157
- 0.794 2 3 cbr 1000 ------- 0 2.0 3.0 147 157
r 0.7948 2 3 cbr 1000 ------- 0 2.0 3.0 137 147
r 0.795632 2 3 tcp 1040 ------- 1 0.0 4.0 3 138
+ 0.795632 3 4 tcp 1040 ------- 1 0.0 4.0 3 138
- 0.795632 3 4 tcp 1040 ------- 1 0.0 4.0 3 138
+ 0.796 2 3 cbr 1000 ------- 0 2.0 3.0 148 158
- 0.796 2 3 cbr 1000 ------- 0 2.0 3.0 148 158
r 0.796464 2 3 tcp 1040 ------- 1 0.0 4.0 4 139
+ 0.796464 3 4 tcp 1040 ------- 1 0.0 4.0 4 139
- 0.796464 3 4 tcp 1040 ------- 1 0.0 4.0 4 139
r 0.797264 2 3 cbr 1000 ------- 0 2.0 3.0 138 148
+ 0.798 2 3 cbr 1000 ------- 0 2.0 3.0 149 159
- 0.798 2 3 cbr 1000 ------- 0 2.0 3.0 149 159
r 0.798096 2 3 tcp 1040 ------- 1 0.0 4.0 5 141
+ 0.798096 3 4 tcp 1040 ------- 1 0.0 4.0 5 141
- 0.798096 3 4 tcp 1040 ------- 1 0.0 4.0 5 141
r 0.798928 2 3 tcp 1040 ------- 1 0.0 4.0 6 142
+ 0.798928 3 4 tcp 1040 ------- 1 0.0 4.0 6 142
- 0.798928 3 4 tcp 1040 ------- 1 0.0 4.0 6 142
r 0.799728 2 3 cbr 1000 ------- 0 2.0 3.0 139 149
+ 0.8 2 3 cbr 1000 ------- 0 2.0 3.0 150 160
- 0.8 2 3 cbr 1000 ------- 0 2.0 3.0 150 160
r 0.8008 2 3 cbr 1000 ------- 0 2.0 3.0 140 150
+ 0.802 2 3 cbr 1000 ------- 0 2.0 3.0 151 161
- 0.802 2 3 cbr 1000 ------- 0 2.0 3.0 151 161
r 0.8028 2 3 cbr 1000 ------- 0 2.0 3.0 141 151
+ 0.804 2 3 cbr 1000 ------- 0 2.0 3.0 152 162
- 0.804 2 3 cbr 1000 ------- 0 2.0 3.0 152 162
r 0.8048 2 3 cbr 1000 ------- 0 2.0 3.0 142 152
+ 0.806 2 3 cbr 1000 ------- 0 2.0 3.0 153 163
- 0.806 2 3 cbr 1000 ------- 0 2.0 3.0 153 163
r 0.806464 3 4 tcp 1040 ------- 1 0.0 4.0 3 138
+ 0.806464 4 3 ack 40 ------- 1 4.0 0.0 3 164
- 0.806464 4 3 ack 40 ------- 1 4.0 0.0 3 164
r 0.8068 2 3 cbr 1000 ------- 0 2.0 3.0 143 153
r 0.807296 3 4 tcp 1040 ------- 1 0.0 4.0 4 139
+ 0.807296 4 3 ack 40 ------- 1 4.0 0.0 4 165
- 0.807296 4 3 ack 40 ------- 1 4.0 0.0 4 165
+ 0.808 2 3 cbr 1000 ------- 0 2.0 3.0 154 166
- 0.808 2 3 cbr 1000 ------- 0 2.0 3.0 154 166
r 0.8088 2 3 cbr 1000 ------- 0 2.0 3.0 144 154
r 0.808928 3 4 tcp 1040 ------- 1 0.0 4.0 5 141
+ 0.808928 4 3 ack 40 ------- 1 4.0 0.0 5 167
- 0.808928 4 3 ack 40 ------- 1 4.0 0.0 5 167
r 0.80976 3 4 tcp 1040 ------- 1 0.0 4.0 6 142
+ 0.80976 4 3 ack 40 ------- 1 4.0 0.0 6 168
- 0.80976 4 3 ack 40 ------- 1 4.0 0.0 6 168
+ 0.81 2 3 cbr 1000 ------- 0 2.0 3.0 155 169
- 0.81 2 3 cbr 1000 ------- 0 2.0 3.0 155 169
r 0.8108 2 3 cbr 1000 ------- 0 2.0 3.0 145 155
+ 0.812 2 3 cbr 1000 ------- 0 2.0 3.0 156 170
- 0.812 2 3 cbr 1000 ------- 0 2.0 3.0 156 170
r 0.8128 2 3 cbr 1000 ------- 0 2.0 3.0 146 156
+ 0.814 2 3 cbr 1000 ------- 0 2.0 3.0 157 171
- 0.814 2 3 cbr 1000 ------- 0 2.0 3.0 157 171
r 0.8148 2 3 cbr 1000 ------- 0 2.0 3.0 147 157
+ 0.816 2 3 cbr 1000 ------- 0 2.0 3.0 158 172
- 0.816 2 3 cbr 1000 ------- 0 2.0 3.0 158 172
r 0.816496 4 3 ack 40 ------- 1 4.0 0.0 3 164
+ 0.816496 3 2 ack 40 ------- 1 4.0 0.0 3 164
- 0.816496 3 2 ack 40 ------- 1 4.0 0.0 3 164
r 0.8168 2 3 cbr 1000 ------- 0 2.0 3.0 148 158
r 0.817328 4 3 ack 40 ------- 1 4.0 0.0 4 165
+ 0.817328 3 2 ack 40 ------- 1 4.0 0.0 4 165
- 0.817328 3 2 ack 40 ------- 1 4.0 0.0 4 165
+ 0.818 2 3 cbr 1000 ------- 0 2.0 3.0 159 173
- 0.818 2 3 cbr 1000 ------- 0 2.0 3.0 159 173
r 0.8188 2 3 cbr 1000 ------- 0 2.0 3.0 149 159
r 0.81896 4 3 ack 40 ------- 1 4.0 0.0 5 167
+ 0.81896 3 2 ack 40 ------- 1 4.0 0.0 5 167
- 0.81896 3 2 ack 40 ------- 1 4.0 0.0 5 167
r 0.819792 4 3 ack 40 ------- 1 4.0 0.0 6 168
+ 0.819792 3 2 ack 40 ------- 1 4.0 0.0 6 168
- 0.819792 3 2 ack 40 ------- 1 4.0 0.0 6 168
+ 0.82 2 3 cbr 1000 ------- 0 2.0 3.0 160 174
- 0.82 2 3 cbr 1000 ------- 0 2.0 3.0 160 174
r 0.8208 2 3 cbr 1000 ------- 0 2.0 3.0 150 160
+ 0.822 2 3 cbr 1000 ------- 0 2.0 3.0 161 175
- 0.822 2 3 cbr 1000 ------- 0 2.0 3.0 161 175
r 0.8228 2 3 cbr 1000 ------- 0 2.0 3.0 151 161
+ 0.824 2 3 cbr 1000 ------- 0 2.0 3.0 162 176
- 0.824 2 3 cbr 1000 ------- 0 2.0 3.0 162 176
r 0.8248 2 3 cbr 1000 ------- 0 2.0 3.0 152 162
+ 0.826 2 3 cbr 1000 ------- 0 2.0 3.0 163 177
- 0.826 2 3 cbr 1000 ------- 0 2.0 3.0 163 177
r 0.8268 2 3 cbr 1000 ------- 0 2.0 3.0 153 163
+ 0.828 2 3 cbr 1000 ------- 0 2.0 3.0 164 178
- 0.828 2 3 cbr 1000 ------- 0 2.0 3.0 164 178
r 0.8288 2 3 cbr 1000 ------- 0 2.0 3.0 154 166
+ 0.83 2 3 cbr 1000 ------- 0 2.0 3.0 165 179
- 0.83 2 3 cbr 1000 ------- 0 2.0 3.0 165 179
r 0.8308 2 3 cbr 1000 ------- 0 2.0 3.0 155 169
+ 0.832 2 3 cbr 1000 ------- 0 2.0 3.0 166 180
- 0.832 2 3 cbr 1000 ------- 0 2.0 3.0 166 180
r 0.8328 2 3 cbr 1000 ------- 0 2.0 3.0 156 170
+ 0.834 2 3 cbr 1000 ------- 0 2.0 3.0 167 181
- 0.834 2 3 cbr 1000 ------- 0 2.0 3.0 167 181
r 0.8348 2 3 cbr 1000 ------- 0 2.0 3.0 157 171
+ 0.836 2 3 cbr 1000 ------- 0 2.0 3.0 168 182
- 0.836 2 3 cbr 1000 ------- 0 2.0 3.0 168 182
r 0.836528 3 2 ack 40 ------- 1 4.0 0.0 3 164
+ 0.836528 2 0 ack 40 ------- 1 4.0 0.0 3 164
- 0.836528 2 0 ack 40 ------- 1 4.0 0.0 3 164
r 0.8368 2 3 cbr 1000 ------- 0 2.0 3.0 158 172
r 0.83736 3 2 ack 40 ------- 1 4.0 0.0 4 165
+ 0.83736 2 0 ack 40 ------- 1 4.0 0.0 4 165
- 0.83736 2 0 ack 40 ------- 1 4.0 0.0 4 165
+ 0.838 2 3 cbr 1000 ------- 0 2.0 3.0 169 183
- 0.838 2 3 cbr 1000 ------- 0 2.0 3.0 169 183
r 0.8388 2 3 cbr 1000 ------- 0 2.0 3.0 159 173
r 0.838992 3 2 ack 40 ------- 1 4.0 0.0 5 167
+ 0.838992 2 0 ack 40 ------- 1 4.0 0.0 5 167
- 0.838992 2 0 ack 40 ------- 1 4.0 0.0 5 167
r 0.839824 3 2 ack 40 ------- 1 4.0 0.0 6 168
+ 0.839824 2 0 ack 40 ------- 1 4.0 0.0 6 168
- 0.839824 2 0 ack 40 ------- 1 4.0 0.0 6 168
+ 0.84 2 3 cbr 1000 ------- 0 2.0 3.0 170 184
- 0.84 2 3 cbr 1000 ------- 0 2.0 3.0 170 184
r 0.8408 2 3 cbr 1000 ------- 0 2.0 3.0 160 174
+ 0.842 2 3 cbr 1000 ------- 0 2.0 3.0 171 185
- 0.842 2 3 cbr 1000 ------- 0 2.0 3.0 171 185
r 0.8428 2 3 cbr 1000 ------- 0 2.0 3.0 161 175
+ 0.844 2 3 cbr 1000 ------- 0 2.0 3.0 172 186
- 0.844 2 3 cbr 1000 ------- 0 2.0 3.0 172 186
r 0.8448 2 3 cbr 1000 ------- 0 2.0 3.0 162 176
+ 0.846 2 3 cbr 1000 ------- 0 2.0 3.0 173 187
- 0.846 2 3 cbr 1000 ------- 0 2.0 3.0 173 187
r 0.84656 2 0 ack 40 ------- 1 4.0 0.0 3 164
+ 0.84656 0 2 tcp 1040 ------- 1 0.0 4.0 7 188
- 0.84656 0 2 tcp 1040 ------- 1 0.0 4.0 7 188
+ 0.84656 0 2 tcp 1040 ------- 1 0.0 4.0 8 189
r 0.8468 2 3 cbr 1000 ------- 0 2.0 3.0 163 177
r 0.847392 2 0 ack 40 ------- 1 4.0 0.0 4 165
+ 0.847392 0 2 tcp 1040 ------- 1 0.0 4.0 9 190
+ 0.847392 0 2 tcp 1040 ------- 1 0.0 4.0 10 191
- 0.847392 0 2 tcp 1040 ------- 1 0.0 4.0 8 189
+ 0.848 2 3 cbr 1000 ------- 0 2.0 3.0 174 192
- 0.848 2 3 cbr 1000 ------- 0 2.0 3.0 174 192
- 0.848224 0 2 tcp 1040 ------- 1 0.0 4.0 9 190
r 0.8488 2 3 cbr 1000 ------- 0 2.0 3.0 164 178
r 0.849024 2 0 ack 40 ------- 1 4.0 0.0 5 167
+ 0.849024 0 2 tcp 1040 ------- 1 0.0 4.0 11 193
+ 0.849024 0 2 tcp 1040 ------- 1 0.0 4.0 12 194
- 0.849056 0 2 tcp 1040 ------- 1 0.0 4.0 10 191
r 0.849856 2 0 ack 40 ------- 1 4.0 0.0 6 168