+ 0.5 2 3 cbr 1000 ------- 0 2.0 3.0 0 0
- 0.5 2 3 cbr 1000 ------- 0 2.0 3.0 0 0
+ 0.5016 2 3 cbr 1000 ------- 0 2.0 3.0 1 1
- 0.5016 2 3 cbr 1000 ------- 0 2.0 3.0 1 1
+ 0.5032 2 3 cbr 1000 ------- 0 2.0 3.0 2 2
- 0.5032 2 3 cbr 1000 ------- 0 2.0 3.0 2 2
+ 0.5048 2 3 cbr 1000 ------- 0 2.0 3.0 3 3
- 0.5048 2 3 cbr 1000 ------- 0 2.0 3.0 3 3
+ 0.5064 2 3 cbr 1000 ------- 0 2.0 3.0 4 4
- 0.5064 2 3 cbr 1000 ------- 0 2.0 3.0 4 4
+ 0.508 2 3 cbr 1000 ------- 0 2.0 3.0 5 5
- 0.508 2 3 cbr 1000 ------- 0 2.0 3.0 5 5
+ 0.5096 2 3 cbr 1000 ------- 0 2.0 3.0 6 6
- 0.5096 2 3 cbr 1000 ------- 0 2.0 3.0 6 6
+ 0.5112 2 3 cbr 1000 ------- 0 2.0 3.0 7 7
- 0.5112 2 3 cbr 1000 ------- 0 2.0 3.0 7 7
+ 0.5128 2 3 cbr 1000 ------- 0 2.0 3.0 8 8
- 0.5128 2 3 cbr 1000 ------- 0 2.0 3.0 8 8
+ 0.5144 2 3 cbr 1000 ------- 0 2.0 3.0 9 9
- 0.5144 2 3 cbr 1000 ------- 0 2.0 3.0 9 9
+ 0.516 2 3 cbr 1000 ------- 0 2.0 3.0 10 10
- 0.516 2 3 cbr 1000 ------- 0 2.0 3.0 10 10
+ 0.5176 2 3 cbr 1000 ------- 0 2.0 3.0 11 11
- 0.5176 2 3 cbr 1000 ------- 0 2.0 3.0 11 11
+ 0.5192 2 3 cbr 1000 ------- 0 2.0 3.0 12 12
- 0.5192 2 3 cbr 1000 ------- 0 2.0 3.0 12 12
r 0.5208 2 3 cbr 1000 ------- 0 2.0 3.0 0 0
+ 0.5208 2 3 cbr 1000 ------- 0 2.0 3.0 13 13
- 0.5208 2 3 cbr 1000 ------- 0 2.0 3.0 13 13
r 0.5224 2 3 cbr 1000 ------- 0 2.0 3.0 1 1
+ 0.5224 2 3 cbr 1000 ------- 0 2.0 3.0 14 14
- 0.5224 2 3 cbr 1000 ------- 0 2.0 3.0 14 14
r 0.524 2 3 cbr 1000 ------- 0 2.0 3.0 2 2
+ 0.524 2 3 cbr 1000 ------- 0 2.0 3.0 15 15
- 0.524 2 3 cbr 1000 ------- 0 2.0 3.0 15 15
r 0.5256 2 3 cbr 1000 ------- 0 2.0 3.0 3 3
+ 0.5256 2 3 cbr 1000 ------- 0 2.0 3.0 16 16
- 0.5256 2 3 cbr 1000 ------- 0 2.0 3.0 16 16
r 0.5272 2 3 cbr 1000 ------- 0 2.0 3.0 4 4
+ 0.5272 2 3 cbr 1000 ------- 0 2.0 3.0 17 17
- 0.5272 2 3 cbr 1000 ------- 0 2.0 3.0 17 17
r 0.5288 2 3 cbr 1000 ------- 0 2.0 3.0 5 5
+ 0.5288 2 3 cbr 1000 ------- 0 2.0 3.0 18 18
- 0.5288 2 3 cbr 1000 ------- 0 2.0 3.0 18 18
r 0.5304 2 3 cbr 1000 ------- 0 2.0 3.0 6 6
+ 0.5304 2 3 cbr 1000 ------- 0 2.0 3.0 19 19
- 0.5304 2 3 cbr 1000 ------- 0 2.0 3.0 19 19
r 0.532 2 3 cbr 1000 ------- 0 2.0 3.0 7 7
+ 0.532 2 3 cbr 1000 ------- 0 2.0 3.0 20 20
- 0.532 2 3 cbr 1000 ------- 0 2.0 3.0 20 20
r 0.5336 2 3 cbr 1000 ------- 0 2.0 3.0 8 8
+ 0.5336 2 3 cbr 1000 ------- 0 2.0 3.0 21 21
- 0.5336 2 3 cbr 1000 ------- 0 2.0 3.0 21 21
r 0.5352 2 3 cbr 1000 ------- 0 2.0 3.0 9 9
+ 0.5352 2 3 cbr 1000 ------- 0 2.0 3.0 22 22
- 0.5352 2 3 cbr 1000 ------- 0 2.0 3.0 22 22
r 0.5368 2 3 cbr 1000 ------- 0 2.0 3.0 10 10
+ 0.5368 2 3 cbr 1000 ------- 0 2.0 3.0 23 23
- 0.5368 2 3 cbr 1000 ------- 0 2.0 3.0 23 23
r 0.5384 2 3 cbr 1000 ------- 0 2.0 3.0 11 11
+ 0.5384 2 3 cbr 1000 ------- 0 2.0 3.0 24 24
- 0.5384 2 3 cbr 1000 ------- 0 2.0 3.0 24 24
r 0.54 2 3 cbr 1000 ------- 0 2.0 3.0 12 12
+ 0.54 2 3 cbr 1000 ------- 0 2.0 3.0 25 25
- 0.54 2 3 cbr 1000 ------- 0 2.0 3.0 25 25
r 0.5416 2 3 cbr 1000 ------- 0 2.0 3.0 13 13
+ 0.5416 2 3 cbr 1000 ------- 0 2.0 3.0 26 26
- 0.5416 2 3 cbr 1000 ------- 0 2.0 3.0 26 26
r 0.5432 2 3 cbr 1000 ------- 0 2.0 3.0 14 14
+ 0.5432 2 3 cbr 1000 ------- 0 2.0 3.0 27 27
- 0.5432 2 3 cbr 1000 ------- 0 2.0 3.0 27 27
r 0.5448 2 3 cbr 1000 ------- 0 2.0 3.0 15 15
+ 0.5448 2 3 cbr 1000 ------- 0 2.0 3.0 28 28
- 0.5448 2 3 cbr 1000 ------- 0 2.0 3.0 28 28
r 0.5464 2 3 cbr 1000 ------- 0 2.0 3.0 16 16
+ 0.5464 2 3 cbr 1000 ------- 0 2.0 3.0 29 29
- 0.5464 2 3 cbr 1000 ------- 0 2.0 3.0 29 29
r 0.548 2 3 cbr 1000 ------- 0 2.0 3.0 17 17
+ 0.548 2 3 cbr 1000 ------- 0 2.0 3.0 30 30
- 0.548 2 3 cbr 1000 ------- 0 2.0 3.0 30 30
r 0.5496 2 3 cbr 1000 ------- 0 2.0 3.0 18 18
+ 0.5496 2 3 cbr 1000 ------- 0 2.0 3.0 31 31
- 0.5496 2 3 cbr 1000 ------- 0 2.0 3.0 31 31
r 0.5512 2 3 cbr 1000 ------- 0 2.0 3.0 19 19
+ 0.5512 2 3 cbr 1000 ------- 0 2.0 3.0 32 32
- 0.5512 2 3 cbr 1000 ------- 0 2.0 3.0 32 32
r 0.5528 2 3 cbr 1000 ------- 0 2.0 3.0 20 20
+ 0.5528 2 3 cbr 1000 ------- 0 2.0 3.0 33 33
- 0.5528 2 3 cbr 1000 ------- 0 2.0 3.0 33 33
r 0.5544 2 3 cbr 1000 ------- 0 2.0 3.0 21 21
+ 0.5544 2 3 cbr 1000 ------- 0 2.0 3.0 34 34
- 0.5544 2 3 cbr 1000 ------- 0 2.0 3.0 34 34
r 0.556 2 3 cbr 1000 ------- 0 2.0 3.0 22 22
+ 0.556 2 3 cbr 1000 ------- 0 2.0 3.0 35 35
- 0.556 2 3 cbr 1000 ------- 0 2.0 3.0 35 35
r 0.5576 2 3 cbr 1000 ------- 0 2.0 3.0 23 23
+ 0.5576 2 3 cbr 1000 ------- 0 2.0 3.0 36 36
- 0.5576 2 3 cbr 1000 ------- 0 2.0 3.0 36 36
r 0.5592 2 3 cbr 1000 ------- 0 2.0 3.0 24 24
+ 0.5592 2 3 cbr 1000 ------- 0 2.0 3.0 37 37
- 0.5592 2 3 cbr 1000 ------- 0 2.0 3.0 37 37
r 0.5608 2 3 cbr 1000 ------- 0 2.0 3.0 25 25
+ 0.5608 2 3 cbr 1000 ------- 0 2.0 3.0 38 38
- 0.5608 2 3 cbr 1000 ------- 0 2.0 3.0 38 38
r 0.5624 2 3 cbr 1000 ------- 0 2.0 3.0 26 26
+ 0.5624 2 3 cbr 1000 ------- 0 2.0 3.0 39 39
- 0.5624 2 3 cbr 1000 ------- 0 2.0 3.0 39 39
r 0.564 2 3 cbr 1000 ------- 0 2.0 3.0 27 27
+ 0.564 2 3 cbr 1000 ------- 0 2.0 3.0 40 40
- 0.564 2 3 cbr 1000 ------- 0 2.0 3.0 40 40
r 0.5656 2 3 cbr 1000 ------- 0 2.0 3.0 28 28
+ 0.5656 2 3 cbr 1000 ------- 0 2.0 3.0 41 41
- 0.5656 2 3 cbr 1000 ------- 0 2.0 3.0 41 41
r 0.5672 2 3 cbr 1000 ------- 0 2.0 3.0 29 29
+ 0.5672 2 3 cbr 1000 ------- 0 2.0 3.0 42 42
- 0.5672 2 3 cbr 1000 ------- 0 2.0 3.0 42 42
r 0.5688 2 3 cbr 1000 ------- 0 2.0 3.0 30 30
+ 0.5688 2 3 cbr 1000 ------- 0 2.0 3.0 43 43
- 0.5688 2 3 cbr 1000 ------- 0 2.0 3.0 43 43
r 0.5704 2 3 cbr 1000 ------- 0 2.0 3.0 31 31
+ 0.5704 2 3 cbr 1000 ------- 0 2.0 3.0 44 44
- 0.5704 2 3 cbr 1000 ------- 0 2.0 3.0 44 44
r 0.572 2 3 cbr 1000 ------- 0 2.0 3.0 32 32
+ 0.572 2 3 cbr 1000 ------- 0 2.0 3.0 45 45
- 0.572 2 3 cbr 1000 ------- 0 2.0 3.0 45 45
r 0.5736 2 3 cbr 1000 ------- 0 2.0 3.0 33 33
+ 0.5736 2 3 cbr 1000 ------- 0 2.0 3.0 46 46
- 0.5736 2 3 cbr 1000 ------- 0 2.0 3.0 46 46
r 0.5752 2 3 cbr 1000 ------- 0 2.0 3.0 34 34
+ 0.5752 2 3 cbr 1000 ------- 0 2.0 3.0 47 47
- 0.5752 2 3 cbr 1000 ------- 0 2.0 3.0 47 47
r 0.5768 2 3 cbr 1000 ------- 0 2.0 3.0 35 35
+ 0.5768 2 3 cbr 1000 ------- 0 2.0 3.0 48 48
- 0.5768 2 3 cbr 1000 ------- 0 2.0 3.0 48 48
r 0.5784 2 3 cbr 1000 ------- 0 2.0 3.0 36 36
+ 0.5784 2 3 cbr 1000 ------- 0 2.0 3.0 49 49
- 0.5784 2 3 cbr 1000 ------- 0 2.0 3.0 49 49
r 0.58 2 3 cbr 1000 ------- 0 2.0 3.0 37 37
+ 0.58 2 3 cbr 1000 ------- 0 2.0 3.0 50 50
- 0.58 2 3 cbr 1000 ------- 0 2.0 3.0 50 50
r 0.5816 2 3 cbr 1000 ------- 0 2.0 3.0 38 38
+ 0.5816 2 3 cbr 1000 ------- 0 2.0 3.0 51 51
- 0.5816 2 3 cbr 1000 ------- 0 2.0 3.0 51 51
r 0.5832 2 3 cbr 1000 ------- 0 2.0 3.0 39 39
+ 0.5832 2 3 cbr 1000 ------- 0 2.0 3.0 52 52
- 0.5832 2 3 cbr 1000 ------- 0 2.0 3.0 52 52
r 0.5848 2 3 cbr 1000 ------- 0 2.0 3.0 40 40
+ 0.5848 2 3 cbr 1000 ------- 0 2.0 3.0 53 53
- 0.5848 2 3 cbr 1000 ------- 0 2.0 3.0 53 53
r 0.5864 2 3 cbr 1000 ------- 0 2.0 3.0 41 41
+ 0.5864 2 3 cbr 1000 ------- 0 2.0 3.0 54 54
- 0.5864 2 3 cbr 1000 ------- 0 2.0 3.0 54 54
r 0.588 2 3 cbr 1000 ------- 0 2.0 3.0 42 42
+ 0.588 2 3 cbr 1000 ------- 0 2.0 3.0 55 55
- 0.588 2 3 cbr 1000 ------- 0 2.0 3.0 55 55
r 0.5896 2 3 cbr 1000 ------- 0 2.0 3.0 43 43
+ 0.5896 2 3 cbr 1000 ------- 0 2.0 3.0 56 56
- 0.5896 2 3 cbr 1000 ------- 0 2.0 3.0 56 56
r 0.5912 2 3 cbr 1000 ------- 0 2.0 3.0 44 44
+ 0.5912 2 3 cbr 1000 ------- 0 2.0 3.0 57 57
- 0.5912 2 3 cbr 1000 ------- 0 2.0 3.0 57 57
r 0.5928 2 3 cbr 1000 ------- 0 2.0 3.0 45 45
+ 0.5928 2 3 cbr 1000 ------- 0 2.0 3.0 58 58
- 0.5928 2 3 cbr 1000 ------- 0 2.0 3.0 58 58
r 0.5944 2 3 cbr 1000 ------- 0 2.0 3.0 46 46
+ 0.5944 2 3 cbr 1000 ------- 0 2.0 3.0 59 59
- 0.5944 2 3 cbr 1000 ------- 0 2.0 3.0 59 59
r 0.596 2 3 cbr 1000 ------- 0 2.0 3.0 47 47
+ 0.596 2 3 cbr 1000 ------- 0 2.0 3.0 60 60
- 0.596 2 3 cbr 1000 ------- 0 2.0 3.0 60 60
r 0.5976 2 3 cbr 1000 ------- 0 2.0 3.0 48 48
+ 0.5976 2 3 cbr 1000 ------- 0 2.0 3.0 61 61
- 0.5976 2 3 cbr 1000 ------- 0 2.0 3.0 61 61
r 0.5992 2 3 cbr 1000 ------- 0 2.0 3.0 49 49
+ 0.5992 2 3 cbr 1000 ------- 0 2.0 3.0 62 62
- 0.5992 2 3 cbr 1000 ------- 0 2.0 3.0 62 62
+ 0.6 0 2 tcp 40 ------- 1 0.0 4.0 0 63
- 0.6 0 2 tcp 40 ------- 1 0.0 4.0 0 63
r 0.6008 2 3 cbr 1000 ------- 0 2.0 3.0 50 50
+ 0.6008 2 3 cbr 1000 ------- 0 2.0 3.0 63 64
- 0.6008 2 3 cbr 1000 ------- 0 2.0 3.0 63 64
r 0.6024 2 3 cbr 1000 ------- 0 2.0 3.0 51 51
+ 0.6024 2 3 cbr 1000 ------- 0 2.0 3.0 64 65
- 0.6024 2 3 cbr 1000 ------- 0 2.0 3.0 64 65
r 0.604 2 3 cbr 1000 ------- 0 2.0 3.0 52 52
+ 0.604 2 3 cbr 1000 ------- 0 2.0 3.0 65 66
- 0.604 2 3 cbr 1000 ------- 0 2.0 3.0 65 66
r 0.6056 2 3 cbr 1000 ------- 0 2.0 3.0 53 53
+ 0.6056 2 3 cbr 1000 ------- 0 2.0 3.0 66 67
- 0.6056 2 3 cbr 1000 ------- 0 2.0 3.0 66 67
r 0.6072 2 3 cbr 1000 ------- 0 2.0 3.0 54 54
+ 0.6072 2 3 cbr 1000 ------- 0 2.0 3.0 67 68
- 0.6072 2 3 cbr 1000 ------- 0 2.0 3.0 67 68
r 0.6088 2 3 cbr 1000 ------- 0 2.0 3.0 55 55
+ 0.6088 2 3 cbr 1000 ------- 0 2.0 3.0 68 69
- 0.6088 2 3 cbr 1000 ------- 0 2.0 3.0 68 69
r 0.610032 0 2 tcp 40 ------- 1 0.0 4.0 0 63
+ 0.610032 2 3 tcp 40 ------- 1 0.0 4.0 0 63
- 0.610032 2 3 tcp 40 ------- 1 0.0 4.0 0 63
r 0.6104 2 3 cbr 1000 ------- 0 2.0 3.0 56 56
+ 0.6104 2 3 cbr 1000 ------- 0 2.0 3.0 69 70
- 0.6104 2 3 cbr 1000 ------- 0 2.0 3.0 69 70
r 0.612 2 3 cbr 1000 ------- 0 2.0 3.0 57 57
+ 0.612 2 3 cbr 1000 ------- 0 2.0 3.0 70 71
- 0.612 2 3 cbr 1000 ------- 0 2.0 3.0 70 71
r 0.6136 2 3 cbr 1000 ------- 0 2.0 3.0 58 58
+ 0.6136 2 3 cbr 1000 ------- 0 2.0 3.0 71 72
- 0.6136 2 3 cbr 1000 ------- 0 2.0 3.0 71 72
r 0.6152 2 3 cbr 1000 ------- 0 2.0 3.0 59 59
+ 0.6152 2 3 cbr 1000 ------- 0 2.0 3.0 72 73
- 0.6152 2 3 cbr 1000 ------- 0 2.0 3.0 72 73
r 0.6168 2 3 cbr 1000 ------- 0 2.0 3.0 60 60
+ 0.6168 2 3 cbr 1000 ------- 0 2.0 3.0 73 74
- 0.6168 2 3 cbr 1000 ------- 0 2.0 3.0 73 74
r 0.6184 2 3 cbr 1000 ------- 0 2.0 3.0 61 61
+ 0.6184 2 3 cbr 1000 ------- 0 2.0 3.0 74 75
- 0.6184 2 3 cbr 1000 ------- 0 2.0 3.0 74 75
r 0.62 2 3 cbr 1000 ------- 0 2.0 3.0 62 62
+ 0.62 2 3 cbr 1000 ------- 0 2.0 3.0 75 76
- 0.62 2 3 cbr 1000 ------- 0 2.0 3.0 75 76
r 0.6216 2 3 cbr 1000 ------- 0 2.0 3.0 63 64
+ 0.6216 2 3 cbr 1000 ------- 0 2.0 3.0 76 77
- 0.6216 2 3 cbr 1000 ------- 0 2.0 3.0 76 77
r 0.6232 2 3 cbr 1000 ------- 0 2.0 3.0 64 65
+ 0.6232 2 3 cbr 1000 ------- 0 2.0 3.0 77 78
- 0.6232 2 3 cbr 1000 ------- 0 2.0 3.0 77 78
r 0.6248 2 3 cbr 1000 ------- 0 2.0 3.0 65 66
+ 0.6248 2 3 cbr 1000 ------- 0 2.0 3.0 78 79
- 0.6248 2 3 cbr 1000 ------- 0 2.0 3.0 78 79
r 0.6264 2 3 cbr 1000 ------- 0 2.0 3.0 66 67
+ 0.6264 2 3 cbr 1000 ------- 0 2.0 3.0 79 80
- 0.6264 2 3 cbr 1000 ------- 0 2.0 3.0 79 80
r 0.628 2 3 cbr 1000 ------- 0 2.0 3.0 67 68
+ 0.628 2 3 cbr 1000 ------- 0 2.0 3.0 80 81
- 0.628 2 3 cbr 1000 ------- 0 2.0 3.0 80 81
r 0.6296 2 3 cbr 1000 ------- 0 2.0 3.0 68 69
+ 0.6296 2 3 cbr 1000 ------- 0 2.0 3.0 81 82
- 0.6296 2 3 cbr 1000 ------- 0 2.0 3.0 81 82
r 0.630064 2 3 tcp 40 ------- 1 0.0 4.0 0 63
+ 0.630064 3 4 tcp 40 ------- 1 0.0 4.0 0 63
- 0.630064 3 4 tcp 40 ------- 1 0.0 4.0 0 63
r 0.6312 2 3 cbr 1000 ------- 0 2.0 3.0 69 70
+ 0.6312 2 3 cbr 1000 ------- 0 2.0 3.0 82 83
- 0.6312 2 3 cbr 1000 ------- 0 2.0 3.0 82 83
r 0.6328 2 3 cbr 1000 ------- 0 2.0 3.0 70 71
+ 0.6328 2 3 cbr 1000 ------- 0 2.0 3.0 83 84
- 0.6328 2 3 cbr 1000 ------- 0 2.0 3.0 83 84
r 0.6344 2 3 cbr 1000 ------- 0 2.0 3.0 71 72
+ 0.6344 2 3 cbr 1000 ------- 0 2.0 3.0 84 85
- 0.6344 2 3 cbr 1000 ------- 0 2.0 3.0 84 85
r 0.636 2 3 cbr 1000 ------- 0 2.0 3.0 72 73
+ 0.636 2 3 cbr 1000 ------- 0 2.0 3.0 85 86
- 0.636 2 3 cbr 1000 ------- 0 2.0 3.0 85 86
r 0.6376 2 3 cbr 1000 ------- 0 2.0 3.0 73 74
+ 0.6376 2 3 cbr 1000 ------- 0 2.0 3.0 86 87
- 0.6376 2 3 cbr 1000 ------- 0 2.0 3.0 86 87
r 0.6392 2 3 cbr 1000 ------- 0 2.0 3.0 74 75
+ 0.6392 2 3 cbr 1000 ------- 0 2.0 3.0 87 88
- 0.6392 2 3 cbr 1000 ------- 0 2.0 3.0 87 88
r 0.640096 3 4 tcp 40 ------- 1 0.0 4.0 0 63
+ 0.640096 4 3 ack 40 ------- 1 4.0 0.0 0 89
- 0.640096 4 3 ack 40 ------- 1 4.0 0.0 0 89
r 0.6408 2 3 cbr 1000 ------- 0 2.0 3.0 75 76
+ 0.6408 2 3 cbr 1000 ------- 0 2.0 3.0 88 90
- 0.6408 2 3 cbr 1000 ------- 0 2.0 3.0 88 90
r 0.6424 2 3 cbr 1000 ------- 0 2.0 3.0 76 77
+ 0.6424 2 3 cbr 1000 ------- 0 2.0 3.0 89 91
- 0.6424 2 3 cbr 1000 ------- 0 2.0 3.0 89 91
r 0.644 2 3 cbr 1000 ------- 0 2.0 3.0 77 78
+ 0.644 2 3 cbr 1000 ------- 0 2.0 3.0 90 92
- 0.644 2 3 cbr 1000 ------- 0 2.0 3.0 90 92
r 0.6456 2 3 cbr 1000 ------- 0 2.0 3.0 78 79
+ 0.6456 2 3 cbr 1000 ------- 0 2.0 3.0 91 93
- 0.6456 2 3 cbr 1000 ------- 0 2.0 3.0 91 93
r 0.6472 2 3 cbr 1000 ------- 0 2.0 3.0 79 80
+ 0.6472 2 3 cbr 1000 ------- 0 2.0 3.0 92 94
- 0.6472 2 3 cbr 1000 ------- 0 2.0 3.0 92 94
r 0.6488 2 3 cbr 1000 ------- 0 2.0 3.0 80 81
+ 0.6488 2 3 cbr 1000 ------- 0 2.0 3.0 93 95
- 0.6488 2 3 cbr 1000 ------- 0 2.0 3.0 93 95
r 0.650128 4 3 ack 40 ------- 1 4.0 0.0 0 89
+ 0.650128 3 2 ack 40 ------- 1 4.0 0.0 0 89
- 0.650128 3 2 ack 40 ------- 1 4.0 0.0 0 89
r 0.6504 2 3 cbr 1000 ------- 0 2.0 3.0 81 82
+ 0.6504 2 3 cbr 1000 ------- 0 2.0 3.0 94 96
- 0.6504 2 3 cbr 1000 ------- 0 2.0 3.0 94 96
r 0.652 2 3 cbr 1000 ------- 0 2.0 3.0 82 83
+ 0.652 2 3 cbr 1000 ------- 0 2.0 3.0 95 97
- 0.652 2 3 cbr 1000 ------- 0 2.0 3.0 95 97
r 0.6536 2 3 cbr 1000 ------- 0 2.0 3.0 83 84
+ 0.6536 2 3 cbr 1000 ------- 0 2.0 3.0 96 98
- 0.6536 2 3 cbr 1000 ------- 0 2.0 3.0 96 98
r 0.6552 2 3 cbr 1000 ------- 0 2.0 3.0 84 85
+ 0.6552 2 3 cbr 1000 ------- 0 2.0 3.0 97 99
- 0.6552 2 3 cbr 1000 ------- 0 2.0 3.0 97 99
r 0.6568 2 3 cbr 1000 ------- 0 2.0 3.0 85 86
+ 0.6568 2 3 cbr 1000 ------- 0 2.0 3.0 98 100
- 0.6568 2 3 cbr 1000 ------- 0 2.0 3.0 98 100
r 0.6584 2 3 cbr 1000 ------- 0 2.0 3.0 86 87
+ 0.6584 2 3 cbr 1000 ------- 0 2.0 3.0 99 101
- 0.6584 2 3 cbr 1000 ------- 0 2.0 3.0 99 101
r 0.66 2 3 cbr 1000 ------- 0 2.0 3.0 87 88
+ 0.66 2 3 cbr 1000 ------- 0 2.0 3.0 100 102
- 0.66 2 3 cbr 1000 ------- 0 2.0 3.0 100 102
r 0.6616 2 3 cbr 1000 ------- 0 2.0 3.0 88 90
+ 0.6616 2 3 cbr 1000 ------- 0 2.0 3.0 101 103
- 0.6616 2 3 cbr 1000 ------- 0 2.0 3.0 101 103
r 0.6632 2 3 cbr 1000 ------- 0 2.0 3.0 89 91
+ 0.6632 2 3 cbr 1000 ------- 0 2.0 3.0 102 104
- 0.6632 2 3 cbr 1000 ------- 0 2.0 3.0 102 104
r 0.6648 2 3 cbr 1000 ------- 0 2.0 3.0 90 92
+ 0.6648 2 3 cbr 1000 ------- 0 2.0 3.0 103 105
- 0.6648 2 3 cbr 1000 ------- 0 2.0 3.0 103 105
r 0.6664 2 3 cbr 1000 ------- 0 2.0 3.0 91 93
+ 0.6664 2 3 cbr 1000 ------- 0 2.0 3.0 104 106
- 0.6664 2 3 cbr 1000 ------- 0 2.0 3.0 104 106
r 0.668 2 3 cbr 1000 ------- 0 2.0 3.0 92 94
+ 0.668 2 3 cbr 1000 ------- 0 2.0 3.0 105 107
- 0.668 2 3 cbr 1000 ------- 0 2.0 3.0 105 107
r 0.6696 2 3 cbr 1000 ------- 0 2.0 3.0 93 95
+ 0.6696 2 3 cbr 1000 ------- 0 2.0 3.0 106 108
- 0.6696 2 3 cbr 1000 ------- 0 2.0 3.0 106 108
r 0.67016 3 2 ack 40 ------- 1 4.0 0.0 0 89
+ 0.67016 2 0 ack 40 ------- 1 4.0 0.0 0 89
- 0.67016 2 0 ack 40 ------- 1 4.0 0.0 0 89
r 0.6712 2 3 cbr 1000 ------- 0 2.0 3.0 94 96
+ 0.6712 2 3 cbr 1000 ------- 0 2.0 3.0 107 109
- 0.6712 2 3 cbr 1000 ------- 0 2.0 3.0 107 109
r 0.6728 2 3 cbr 1000 ------- 0 2.0 3.0 95 97
+ 0.6728 2 3 cbr 1000 ------- 0 2.0 3.0 108 110
- 0.6728 2 3 cbr 1000 ------- 0 2.0 3.0 108 110
r 0.6744 2 3 cbr 1000 ------- 0 2.0 3.0 96 98
+ 0.6744 2 3 cbr 1000 ------- 0 2.0 3.0 109 111
- 0.6744 2 3 cbr 1000 ------- 0 2.0 3.0 109 111
r 0.676 2 3 cbr 1000 ------- 0 2.0 3.0 97 99
+ 0.676 2 3 cbr 1000 ------- 0 2.0 3.0 110 112
- 0.676 2 3 cbr 1000 ------- 0 2.0 3.0 110 112
r 0.6776 2 3 cbr 1000 ------- 0 2.0 3.0 98 100
+ 0.6776 2 3 cbr 1000 ------- 0 2.0 3.0 111 113
- 0.6776 2 3 cbr 1000 ------- 0 2.0 3.0 111 113
r 0.6792 2 3 cbr 1000 ------- 0 2.0 3.0 99 101
+ 0.6792 2 3 cbr 1000 ------- 0 2.0 3.0 112 114
- 0.6792 2 3 cbr 1000 ------- 0 2.0 3.0 112 114
r 0.680192 2 0 ack 40 ------- 1 4.0 0.0 0 89
+ 0.680192 0 2 tcp 1040 ------- 1 0.0 4.0 1 115
- 0.680192 0 2 tcp 1040 ------- 1 0.0 4.0 1 115
+ 0.680192 0 2 tcp 1040 ------- 1 0.0 4.0 2 116
r 0.6808 2 3 cbr 1000 ------- 0 2.0 3.0 100 102
+ 0.6808 2 3 cbr 1000 ------- 0 2.0 3.0 113 117
- 0.6808 2 3 cbr 1000 ------- 0 2.0 3.0 113 117
- 0.681024 0 2 tcp 1040 ------- 1 0.0 4.0 2 116
r 0.6824 2 3 cbr 1000 ------- 0 2.0 3.0 101 103
+ 0.6824 2 3 cbr 1000 ------- 0 2.0 3.0 114 118
- 0.6824 2 3 cbr 1000 ------- 0 2.0 3.0 114 118
r 0.684 2 3 cbr 1000 ------- 0 2.0 3.0 102 104
+ 0.684 2 3 cbr 1000 ------- 0 2.0 3.0 115 119
- 0.684 2 3 cbr 1000 ------- 0 2.0 3.0 115 119
r 0.6856 2 3 cbr 1000 ------- 0 2.0 3.0 103 105
+ 0.6856 2 3 cbr 1000 ------- 0 2.0 3.0 116 120
- 0.6856 2 3 cbr 1000 ------- 0 2.0 3.0 116 120
r 0.6872 2 3 cbr 1000 ------- 0 2.0 3.0 104 106
+ 0.6872 2 3 cbr 1000 ------- 0 2.0 3.0 117 121
- 0.6872 2 3 cbr 1000 ------- 0 2.0 3.0 117 121
r 0.6888 2 3 cbr 1000 ------- 0 2.0 3.0 105 107
+ 0.6888 2 3 cbr 1000 ------- 0 2.0 3.0 118 122
- 0.6888 2 3 cbr 1000 ------- 0 2.0 3.0 118 122
r 0.6904 2 3 cbr 1000 ------- 0 2.0 3.0 106 108
+ 0.6904 2 3 cbr 1000 ------- 0 2.0 3.0 119 123
- 0.6904 2 3 cbr 1000 ------- 0 2.0 3.0 119 123
r 0.691024 0 2 tcp 1040 ------- 1 0.0 4.0 1 115
+ 0.691024 2 3 tcp 1040 ------- 1 0.0 4.0 1 115
- 0.6912 2 3 tcp 1040 ------- 1 0.0 4.0 1 115
r 0.691856 0 2 tcp 1040 ------- 1 0.0 4.0 2 116
+ 0.691856 2 3 tcp 1040 ------- 1 0.0 4.0 2 116
r 0.692 2 3 cbr 1000 ------- 0 2.0 3.0 107 109
+ 0.692 2 3 cbr 1000 ------- 0 2.0 3.0 120 124
- 0.692032 2 3 tcp 1040 ------- 1 0.0 4.0 2 116
- 0.692864 2 3 cbr 1000 ------- 0 2.0 3.0 120 124
r 0.6936 2 3 cbr 1000 ------- 0 2.0 3.0 108 110
+ 0.6936 2 3 cbr 1000 ------- 0 2.0 3.0 121 125
- 0.693664 2 3 cbr 1000 ------- 0 2.0 3.0 121 125
r 0.6952 2 3 cbr 1000 ------- 0 2.0 3.0 109 111
+ 0.6952 2 3 cbr 1000 ------- 0 2.0 3.0 122 126
- 0.6952 2 3 cbr 1000 ------- 0 2.0 3.0 122 126
r 0.6968 2 3 cbr 1000 ------- 0 2.0 3.0 110 112
+ 0.6968 2 3 cbr 1000 ------- 0 2.0 3.0 123 127
- 0.6968 2 3 cbr 1000 ------- 0 2.0 3.0 123 127
r 0.6984 2 3 cbr 1000 ------- 0 2.0 3.0 111 113
+ 0.6984 2 3 cbr 1000 ------- 0 2.0 3.0 124 128
- 0.6984 2 3 cbr 1000 ------- 0 2.0 3.0 124 128
r 0.7 2 3 cbr 1000 ------- 0 2.0 3.0 112 114
+ 0.7 2 3 cbr 1000 ------- 0 2.0 3.0 125 129
- 0.7 2 3 cbr 1000 ------- 0 2.0 3.0 125 129
r 0.7016 2 3 cbr 1000 ------- 0 2.0 3.0 113 117
+ 0.7016 2 3 cbr 1000 ------- 0 2.0 3.0 126 130
- 0.7016 2 3 cbr 1000 ------- 0 2.0 3.0 126 130
r 0.7032 2 3 cbr 1000 ------- 0 2.0 3.0 114 118
+ 0.7032 2 3 cbr 1000 ------- 0 2.0 3.0 127 131
- 0.7032 2 3 cbr 1000 ------- 0 2.0 3.0 127 131
r 0.7048 2 3 cbr 1000 ------- 0 2.0 3.0 115 119
+ 0.7048 2 3 cbr 1000 ------- 0 2.0 3.0 128 132
- 0.7048 2 3 cbr 1000 ------- 0 2.0 3.0 128 132
r 0.7064 2 3 cbr 1000 ------- 0 2.0 3.0 116 120
+ 0.7064 2 3 cbr 1000 ------- 0 2.0 3.0 129 133
- 0.7064 2 3 cbr 1000 ------- 0 2.0 3.0 129 133
r 0.708 2 3 cbr 1000 ------- 0 2.0 3.0 117 121
+ 0.708 2 3 cbr 1000 ------- 0 2.0 3.0 130 134
- 0.708 2 3 cbr 1000 ------- 0 2.0 3.0 130 134
r 0.7096 2 3 cbr 1000 ------- 0 2.0 3.0 118 122
+ 0.7096 2 3 cbr 1000 ------- 0 2.0 3.0 131 135
- 0.7096 2 3 cbr 1000 ------- 0 2.0 3.0 131 135
r 0.7112 2 3 cbr 1000 ------- 0 2.0 3.0 119 123
+ 0.7112 2 3 cbr 1000 ------- 0 2.0 3.0 132 136
- 0.7112 2 3 cbr 1000 ------- 0 2.0 3.0 132 136
r 0.712032 2 3 tcp 1040 ------- 1 0.0 4.0 1 115
+ 0.712032 3 4 tcp 1040 ------- 1 0.0 4.0 1 115
- 0.712032 3 4 tcp 1040 ------- 1 0.0 4.0 1 115
+ 0.7128 2 3 cbr 1000 ------- 0 2.0 3.0 133 137
- 0.7128 2 3 cbr 1000 ------- 0 2.0 3.0 133 137
r 0.712864 2 3 tcp 1040 ------- 1 0.0 4.0 2 116
+ 0.712864 3 4 tcp 1040 ------- 1 0.0 4.0 2 116
- 0.712864 3 4 tcp 1040 ------- 1 0.0 4.0 2 116
r 0.713664 2 3 cbr 1000 ------- 0 2.0 3.0 120 124
+ 0.7144 2 3 cbr 1000 ------- 0 2.0 3.0 134 138
- 0.7144 2 3 cbr 1000 ------- 0 2.0 3.0 134 138
r 0.714464 2 3 cbr 1000 ------- 0 2.0 3.0 121 125
r 0.716 2 3 cbr 1000 ------- 0 2.0 3.0 122 126
+ 0.716 2 3 cbr 1000 ------- 0 2.0 3.0 135 139
- 0.716 2 3 cbr 1000 ------- 0 2.0 3.0 135 139
r 0.7176 2 3 cbr 1000 ------- 0 2.0 3.0 123 127
+ 0.7176 2 3 cbr 1000 ------- 0 2.0 3.0 136 140
- 0.7176 2 3 cbr 1000 ------- 0 2.0 3.0 136 140
r 0.7192 2 3 cbr 1000 ------- 0 2.0 3.0 124 128
+ 0.7192 2 3 cbr 1000 ------- 0 2.0 3.0 137 141
- 0.7192 2 3 cbr 1000 ------- 0 2.0 3.0 137 141
r 0.7208 2 3 cbr 1000 ------- 0 2.0 3.0 125 129
+ 0.7208 2 3 cbr 1000 ------- 0 2.0 3.0 138 142
- 0.7208 2 3 cbr 1000 ------- 0 2.0 3.0 138 142
r 0.7224 2 3 cbr 1000 ------- 0 2.0 3.0 126 130
+ 0.7224 2 3 cbr 1000 ------- 0 2.0 3.0 139 143
- 0.7224 2 3 cbr 1000 ------- 0 2.0 3.0 139 143
r 0.722864 3 4 tcp 1040 ------- 1 0.0 4.0 1 115
+ 0.722864 4 3 ack 40 ------- 1 4.0 0.0 1 144
- 0.722864 4 3 ack 40 ------- 1 4.0 0.0 1 144
r 0.723696 3 4 tcp 1040 ------- 1 0.0 4.0 2 116
+ 0.723696 4 3 ack 40 ------- 1 4.0 0.0 2 145
- 0.723696 4 3 ack 40 ------- 1 4.0 0.0 2 145
r 0.724 2 3 cbr 1000 ------- 0 2.0 3.0 127 131
+ 0.724 2 3 cbr 1000 ------- 0 2.0 3.0 140 146
- 0.724 2 3 cbr 1000 ------- 0 2.0 3.0 140 146
r 0.7256 2 3 cbr 1000 ------- 0 2.0 3.0 128 132
+ 0.7256 2 3 cbr 1000 ------- 0 2.0 3.0 141 147
- 0.7256 2 3 cbr 1000 ------- 0 2.0 3.0 141 147
r 0.7272 2 3 cbr 1000 ------- 0 2.0 3.0 129 133
+ 0.7272 2 3 cbr 1000 ------- 0 2.0 3.0 142 148
- 0.7272 2 3 cbr 1000 ------- 0 2.0 3.0 142 148
r 0.7288 2 3 cbr 1000 ------- 0 2.0 3.0 130 134
+ 0.7288 2 3 cbr 1000 ------- 0 2.0 3.0 143 149
- 0.7288 2 3 cbr 1000 ------- 0 2.0 3.0 143 149
r 0.7304 2 3 cbr 1000 ------- 0 2.0 3.0 131 135
+ 0.7304 2 3 cbr 1000 ------- 0 2.0 3.0 144 150
- 0.7304 2 3 cbr 1000 ------- 0 2.0 3.0 144 150
r 0.732 2 3 cbr 1000 ------- 0 2.0 3.0 132 136
+ 0.732 2 3 cbr 1000 ------- 0 2.0 3.0 145 151
- 0.732 2 3 cbr 1000 ------- 0 2.0 3.0 145 151
r 0.732896 4 3 ack 40 ------- 1 4.0 0.0 1 144
+ 0.732896 3 2 ack 40 ------- 1 4.0 0.0 1 144
- 0.732896 3 2 ack 40 ------- 1 4.0 0.0 1 144
r 0.7336 2 3 cbr 1000 ------- 0 2.0 3.0 133 137
+ 0.7336 2 3 cbr 1000 ------- 0 2.0 3.0 146 152
- 0.7336 2 3 cbr 1000 ------- 0 2.0 3.0 146 152
r 0.733728 4 3 ack 40 ------- 1 4.0 0.0 2 145
+ 0.733728 3 2 ack 40 ------- 1 4.0 0.0 2 145
- 0.733728 3 2 ack 40 ------- 1 4.0 0.0 2 145
r 0.7352 2 3 cbr 1000 ------- 0 2.0 3.0 134 138
+ 0.7352 2 3 cbr 1000 ------- 0 2.0 3.0 147 153
- 0.7352 2 3 cbr 1000 ------- 0 2.0 3.0 147 153
r 0.7368 2 3 cbr 1000 ------- 0 2.0 3.0 135 139
+ 0.7368 2 3 cbr 1000 ------- 0 2.0 3.0 148 154
- 0.7368 2 3 cbr 1000 ------- 0 2.0 3.0 148 154
r 0.7384 2 3 cbr 1000 ------- 0 2.0 3.0 136 140
+ 0.7384 2 3 cbr 1000 ------- 0 2.0 3.0 149 155
- 0.7384 2 3 cbr 1000 ------- 0 2.0 3.0 149 155
r 0.74 2 3 cbr 1000 ------- 0 2.0 3.0 137 141
+ 0.74 2 3 cbr 1000 ------- 0 2.0 3.0 150 156
- 0.74 2 3 cbr 1000 ------- 0 2.0 3.0 150 156
r 0.7416 2 3 cbr 1000 ------- 0 2.0 3.0 138 142
+ 0.7416 2 3 cbr 1000 ------- 0 2.0 3.0 151 157
- 0.7416 2 3 cbr 1000 ------- 0 2.0 3.0 151 157
r 0.7432 2 3 cbr 1000 ------- 0 2.0 3.0 139 143
+ 0.7432 2 3 cbr 1000 ------- 0 2.0 3.0 152 158
- 0.7432 2 3 cbr 1000 ------- 0 2.0 3.0 152 158
r 0.7448 2 3 cbr 1000 ------- 0 2.0 3.0 140 146
+ 0.7448 2 3 cbr 1000 ------- 0 2.0 3.0 153 159
- 0.7448 2 3 cbr 1000 ------- 0 2.0 3.0 153 159
r 0.7464 2 3 cbr 1000 ------- 0 2.0 3.0 141 147
+ 0.7464 2 3 cbr 1000 ------- 0 2.0 3.0 154 160
- 0.7464 2 3 cbr 1000 ------- 0 2.0 3.0 154 160
r 0.748 2 3 cbr 1000 ------- 0 2.0 3.0 142 148
+ 0.748 2 3 cbr 1000 ------- 0 2.0 3.0 155 161
- 0.748 2 3 cbr 1000 ------- 0 2.0 3.0 155 161
r 0.7496 2 3 cbr 1000 ------- 0 2.0 3.0 143 149
+ 0.7496 2 3 cbr 1000 ------- 0 2.0 3.0 156 162
- 0.7496 2 3 cbr 1000 ------- 0 2.0 3.0 156 162
r 0.7512 2 3 cbr 1000 ------- 0 2.0 3.0 144 150
+ 0.7512 2 3 cbr 1000 ------- 0 2.0 3.0 157 163
- 0.7512 2 3 cbr 1000 ------- 0 2.0 3.0 157 163
r 0.7528 2 3 cbr 1000 ------- 0 2.0 3.0 145 151
+ 0.7528 2 3 cbr 1000 ------- 0 2.0 3.0 158 164
- 0.7528 2 3 cbr 1000 ------- 0 2.0 3.0 158 164
r 0.752928 3 2 ack 40 ------- 1 4.0 0.0 1 144
+ 0.752928 2 0 ack 40 ------- 1 4.0 0.0 1 144
- 0.752928 2 0 ack 40 ------- 1 4.0 0.0 1 144
r 0.75376 3 2 ack 40 ------- 1 4.0 0.0 2 145
+ 0.75376 2 0 ack 40 ------- 1 4.0 0.0 2 145
- 0.75376 2 0 ack 40 ------- 1 4.0 0.0 2 145
r 0.7544 2 3 cbr 1000 ------- 0 2.0 3.0 146 152
+ 0.7544 2 3 cbr 1000 ------- 0 2.0 3.0 159 165
- 0.7544 2 3 cbr 1000 ------- 0 2.0 3.0 159 165
r 0.756 2 3 cbr 1000 ------- 0 2.0 3.0 147 153
+ 0.756 2 3 cbr 1000 ------- 0 2.0 3.0 160 166
- 0.756 2 3 cbr 1000 ------- 0 2.0 3.0 160 166
r 0.7576 2 3 cbr 1000 ------- 0 2.0 3.0 148 154
+ 0.7576 2 3 cbr 1000 ------- 0 2.0 3.0 161 167
- 0.7576 2 3 cbr 1000 ------- 0 2.0 3.0 161 167
r 0.7592 2 3 cbr 1000 ------- 0 2.0 3.0 149 155
+ 0.7592 2 3 cbr 1000 ------- 0 2.0 3.0 162 168
- 0.7592 2 3 cbr 1000 ------- 0 2.0 3.0 162 168
r 0.7608 2 3 cbr 1000 ------- 0 2.0 3.0 150 156
+ 0.7608 2 3 cbr 1000 ------- 0 2.0 3.0 163 169
- 0.7608 2 3 cbr 1000 ------- 0 2.0 3.0 163 169
r 0.7624 2 3 cbr 1000 ------- 0 2.0 3.0 151 157
+ 0.7624 2 3 cbr 1000 ------- 0 2.0 3.0 164 170
- 0.7624 2 3 cbr 1000 ------- 0 2.0 3.0 164 170
r 0.76296 2 0 ack 40 ------- 1 4.0 0.0 1 144
+ 0.76296 0 2 tcp 1040 ------- 1 0.0 4.0 3 171
- 0.76296 0 2 tcp 1040 ------- 1 0.0 4.0 3 171
+ 0.76296 0 2 tcp 1040 ------- 1 0.0 4.0 4 172
r 0.763792 2 0 ack 40 ------- 1 4.0 0.0 2 145
+ 0.763792 0 2 tcp 1040 ------- 1 0.0 4.0 5 173
+ 0.763792 0 2 tcp 1040 ------- 1 0.0 4.0 6 174
- 0.763792 0 2 tcp 1040 ------- 1 0.0 4.0 4 172
r 0.764 2 3 cbr 1000 ------- 0 2.0 3.0 152 158
+ 0.764 2 3 cbr 1000 ------- 0 2.0 3.0 165 175
- 0.764 2 3 cbr 1000 ------- 0 2.0 3.0 165 175
- 0.764624 0 2 tcp 1040 ------- 1 0.0 4.0 5 173
- 0.765456 0 2 tcp 1040 ------- 1 0.0 4.0 6 174
r 0.7656 2 3 cbr 1000 ------- 0 2.0 3.0 153 159
+ 0.7656 2 3 cbr 1000 ------- 0 2.0 3.0 166 176
- 0.7656 2 3 cbr 1000 ------- 0 2.0 3.0 166 176
r 0.7672 2 3 cbr 1000 ------- 0 2.0 3.0 154 160
+ 0.7672 2 3 cbr 1000 ------- 0 2.0 3.0 167 177
- 0.7672 2 3 cbr 1000 ------- 0 2.0 3.0 167 177
r 0.7688 2 3 cbr 1000 ------- 0 2.0 3.0 155 161
+ 0.7688 2 3 cbr 1000 ------- 0 2.0 3.0 168 178
- 0.7688 2 3 cbr 1000 ------- 0 2.0 3.0 168 178
r 0.7704 2 3 cbr 1000 ------- 0 2.0 3.0 156 162
+ 0.7704 2 3 cbr 1000 ------- 0 2.0 3.0 169 179
- 0.7704 2 3 cbr 1000 ------- 0 2.0 3.0 169 179
r 0.772 2 3 cbr 1000 ------- 0 2.0 3.0 157 163
+ 0.772 2 3 cbr 1000 ------- 0 2.0 3.0 170 180
- 0.772 2 3 cbr 1000 ------- 0 2.0 3.0 170 180
r 0.7736 2 3 cbr 1000 ------- 0 2.0 3.0 158 164
+ 0.7736 2 3 cbr 1000 ------- 0 2.0 3.0 171 181
- 0.7736 2 3 cbr 1000 ------- 0 2.0 3.0 171 181
r 0.773792 0 2 tcp 1040 ------- 1 0.0 4.0 3 171
+ 0.773792 2 3 tcp 1040 ------- 1 0.0 4.0 3 171
- 0.7744 2 3 tcp 1040 ------- 1 0.0 4.0 3 171
r 0.774624 0 2 tcp 1040 ------- 1 0.0 4.0 4 172
+ 0.774624 2 3 tcp 1040 ------- 1 0.0 4.0 4 172
r 0.7752 2 3 cbr 1000 ------- 0 2.0 3.0 159 165
+ 0.7752 2 3 cbr 1000 ------- 0 2.0 3.0 172 182
- 0.775232 2 3 tcp 1040 ------- 1 0.0 4.0 4 172
r 0.775456 0 2 tcp 1040 ------- 1 0.0 4.0 5 173
+ 0.775456 2 3 tcp 1040 ------- 1 0.0 4.0 5 173
- 0.776064 2 3 cbr 1000 ------- 0 2.0 3.0 172 182
r 0.776288 0 2 tcp 1040 ------- 1 0.0 4.0 6 174
+ 0.776288 2 3 tcp 1040 ------- 1 0.0 4.0 6 174
r 0.7768 2 3 cbr 1000 ------- 0 2.0 3.0 160 166
+ 0.7768 2 3 cbr 1000 ------- 0 2.0 3.0 173 183
- 0.776864 2 3 tcp 1040 ------- 1 0.0 4.0 5 173
- 0.777696 2 3 tcp 1040 ------- 1 0.0 4.0 6 174
r 0.7784 2 3 cbr 1000 ------- 0 2.0 3.0 161 167
+ 0.7784 2 3 cbr 1000 ------- 0 2.0 3.0 174 184
- 0.778528 2 3 cbr 1000 ------- 0 2.0 3.0 173 183
- 0.779328 2 3 cbr 1000 ------- 0 2.0 3.0 174 184
r 0.78 2 3 cbr 1000 ------- 0 2.0 3.0 162 168
+ 0.78 2 3 cbr 1000 ------- 0 2.0 3.0 175 185
- 0.780128 2 3 cbr 1000 ------- 0 2.0 3.0 175 185
r 0.7816 2 3 cbr 1000 ------- 0 2.0 3.0 163 169
+ 0.7816 2 3 cbr 1000 ------- 0 2.0 3.0 176 186
- 0.7816 2 3 cbr 1000 ------- 0 2.0 3.0 176 186
r 0.7832 2 3 cbr 1000 ------- 0 2.0 3.0 164 170
+ 0.7832 2 3 cbr 1000 ------- 0 2.0 3.0 177 187
- 0.7832 2 3 cbr 1000 ------- 0 2.0 3.0 177 187
r 0.7848 2 3 cbr 1000 ------- 0 2.0 3.0 165 175
+ 0.7848 2 3 cbr 1000 ------- 0 2.0 3.0 178 188
- 0.7848 2 3 cbr 1000 ------- 0 2.0 3.0 178 188
r 0.7864 2 3 cbr 1000 ------- 0 2.0 3.0 166 176
+ 0.7864 2 3 cbr 1000 ------- 0 2.0 3.0 179 189
- 0.7864 2 3 cbr 1000 ------- 0 2.0 3.0 179 189
r 0.788 2 3 cbr 1000 ------- 0 2.0 3.0 167 177
+ 0.788 2 3 cbr 1000 ------- 0 2.0 3.0 180 190
- 0.788 2 3 cbr 1000 ------- 0 2.0 3.0 180 190
r 0.7896 2 3 cbr 1000 ------- 0 2.0 3.0 168 178
+ 0.7896 2 3 cbr 1000 ------- 0 2.0 3.0 181 191
- 0.7896 2 3 cbr 1000 ------- 0 2.0 3.0 181 191
r 0.7912 2 3 cbr 1000 ------- 0 2.0 3.0 169 179
+ 0.7912 2 3 cbr 1000 ------- 0 2.0 3.0 182 192
- 0.7912 2 3 cbr 1000 ------- 0 2.0 3.0 182 192
r 0.7928 2 3 cbr 1000 ------- 0 2.0 3.0 170 180
+ 0.7928 2 3 cbr 1000 ------- 0 2.0 3.0 183 193
- 0.7928 2 3 cbr 1000 ------- 0 2.0 3.0 183 193
r 0.7944 2 3 cbr 1000 ------- 0 2.0 3.0 171 181
+ 0.7944 2 3 cbr 1000 ------- 0 2.0 3.0 184 194
- 0.7944 2 3 cbr 1000 ------- 0 2.0 3.0 184 194
r 0.795232 2 3 tcp 1040 ------- 1 0.0 4.0 3 171
+ 0.795232 3 4 tcp 1040 ------- 1 0.0 4.0 3 171
- 0.795232 3 4 tcp 1040 ------- 1 0.0 4.0 3 171
+ 0.796 2 3 cbr 1000 ------- 0 2.0 3.0 185 195
- 0.796 2 3 cbr 1000 ------- 0 2.0 3.0 185 195
r 0.796064 2 3 tcp 1040 ------- 1 0.0 4.0 4 172
+ 0.796064 3 4 tcp 1040 ------- 1 0.0 4.0 4 172
- 0.796064 3 4 tcp 1040 ------- 1 0.0 4.0 4 172
r 0.796864 2 3 cbr 1000 ------- 0 2.0 3.0 172 182
+ 0.7976 2 3 cbr 1000 ------- 0 2.0 3.0 186 196
- 0.7976 2 3 cbr 1000 ------- 0 2.0 3.0 186 196
r 0.797696 2 3 tcp 1040 ------- 1 0.0 4.0 5 173
+ 0.797696 3 4 tcp 1040 ------- 1 0.0 4.0 5 173
- 0.797696 3 4 tcp 1040 ------- 1 0.0 4.0 5 173
r 0.798528 2 3 tcp 1040 ------- 1 0.0 4.0 6 174
+ 0.798528 3 4 tcp 1040 ------- 1 0.0 4.0 6 174
- 0.798528 3 4 tcp 1040 ------- 1 0.0 4.0 6 174
+ 0.7992 2 3 cbr 1000 ------- 0 2.0 3.0 187 197
- 0.7992 2 3 cbr 1000 ------- 0 2.0 3.0 187 197
r 0.799328 2 3 cbr 1000 ------- 0 2.0 3.0 173 183
r 0.800128 2 3 cbr 1000 ------- 0 2.0 3.0 174 184
+ 0.8008 2 3 cbr 1000 ------- 0 2.0 3.0 188 198
- 0.8008 2 3 cbr 1000 ------- 0 2.0 3.0 188 198
r 0.800928 2 3 cbr 1000 ------- 0 2.0 3.0 175 185
r 0.8024 2 3 cbr 1000 ------- 0 2.0 3.0 176 186
+ 0.8024 2 3 cbr 1000 ------- 0 2.0 3.0 189 199
- 0.8024 2 3 cbr 1000 ------- 0 2.0 3.0 189 199