+ 0.5 2 3 cbr 1000 ------- 0 2.0 3.0 0 0
- 0.5 2 3 cbr 1000 ------- 0 2.0 3.0 0 0
+ 0.5005 2 3 cbr 1000 ------- 0 2.0 3.0 1 1
- 0.5008 2 3 cbr 1000 ------- 0 2.0 3.0 1 1
+ 0.501 2 3 cbr 1000 ------- 0 2.0 3.0 2 2
+ 0.5015 2 3 cbr 1000 ------- 0 2.0 3.0 3 3
- 0.5016 2 3 cbr 1000 ------- 0 2.0 3.0 2 2
+ 0.502 2 3 cbr 1000 ------- 0 2.0 3.0 4 4
- 0.5024 2 3 cbr 1000 ------- 0 2.0 3.0 3 3
+ 0.5025 2 3 cbr 1000 ------- 0 2.0 3.0 5 5
+ 0.503 2 3 cbr 1000 ------- 0 2.0 3.0 6 6
- 0.5032 2 3 cbr 1000 ------- 0 2.0 3.0 4 4
+ 0.5035 2 3 cbr 1000 ------- 0 2.0 3.0 7 7
+ 0.504 2 3 cbr 1000 ------- 0 2.0 3.0 8 8
- 0.504 2 3 cbr 1000 ------- 0 2.0 3.0 5 5
+ 0.5045 2 3 cbr 1000 ------- 0 2.0 3.0 9 9
- 0.5048 2 3 cbr 1000 ------- 0 2.0 3.0 6 6
+ 0.505 2 3 cbr 1000 ------- 0 2.0 3.0 10 10
+ 0.5055 2 3 cbr 1000 ------- 0 2.0 3.0 11 11
- 0.5056 2 3 cbr 1000 ------- 0 2.0 3.0 7 7
+ 0.506 2 3 cbr 1000 ------- 0 2.0 3.0 12 12
- 0.5064 2 3 cbr 1000 ------- 0 2.0 3.0 8 8
+ 0.5065 2 3 cbr 1000 ------- 0 2.0 3.0 13 13
+ 0.507 2 3 cbr 1000 ------- 0 2.0 3.0 14 14
- 0.5072 2 3 cbr 1000 ------- 0 2.0 3.0 9 9
+ 0.5075 2 3 cbr 1000 ------- 0 2.0 3.0 15 15
+ 0.508 2 3 cbr 1000 ------- 0 2.0 3.0 16 16
- 0.508 2 3 cbr 1000 ------- 0 2.0 3.0 10 10
+ 0.5085 2 3 cbr 1000 ------- 0 2.0 3.0 17 17
- 0.5088 2 3 cbr 1000 ------- 0 2.0 3.0 11 11
+ 0.509 2 3 cbr 1000 ------- 0 2.0 3.0 18 18
+ 0.5095 2 3 cbr 1000 ------- 0 2.0 3.0 19 19
- 0.5096 2 3 cbr 1000 ------- 0 2.0 3.0 12 12
+ 0.51 2 3 cbr 1000 ------- 0 2.0 3.0 20 20
- 0.5104 2 3 cbr 1000 ------- 0 2.0 3.0 13 13
+ 0.5105 2 3 cbr 1000 ------- 0 2.0 3.0 21 21
+ 0.511 2 3 cbr 1000 ------- 0 2.0 3.0 22 22
- 0.5112 2 3 cbr 1000 ------- 0 2.0 3.0 14 14
+ 0.5115 2 3 cbr 1000 ------- 0 2.0 3.0 23 23
+ 0.512 2 3 cbr 1000 ------- 0 2.0 3.0 24 24
- 0.512 2 3 cbr 1000 ------- 0 2.0 3.0 15 15
+ 0.5125 2 3 cbr 1000 ------- 0 2.0 3.0 25 25
- 0.5128 2 3 cbr 1000 ------- 0 2.0 3.0 16 16
+ 0.513 2 3 cbr 1000 ------- 0 2.0 3.0 26 26
+ 0.5135 2 3 cbr 1000 ------- 0 2.0 3.0 27 27
- 0.5136 2 3 cbr 1000 ------- 0 2.0 3.0 17 17
+ 0.514 2 3 cbr 1000 ------- 0 2.0 3.0 28 28
- 0.5144 2 3 cbr 1000 ------- 0 2.0 3.0 18 18
+ 0.5145 2 3 cbr 1000 ------- 0 2.0 3.0 29 29
+ 0.515 2 3 cbr 1000 ------- 0 2.0 3.0 30 30
- 0.5152 2 3 cbr 1000 ------- 0 2.0 3.0 19 19
+ 0.5155 2 3 cbr 1000 ------- 0 2.0 3.0 31 31
+ 0.516 2 3 cbr 1000 ------- 0 2.0 3.0 32 32
- 0.516 2 3 cbr 1000 ------- 0 2.0 3.0 20 20
+ 0.5165 2 3 cbr 1000 ------- 0 2.0 3.0 33 33
- 0.5168 2 3 cbr 1000 ------- 0 2.0 3.0 21 21
+ 0.517 2 3 cbr 1000 ------- 0 2.0 3.0 34 34
+ 0.5175 2 3 cbr 1000 ------- 0 2.0 3.0 35 35
- 0.5176 2 3 cbr 1000 ------- 0 2.0 3.0 22 22
+ 0.518 2 3 cbr 1000 ------- 0 2.0 3.0 36 36
- 0.5184 2 3 cbr 1000 ------- 0 2.0 3.0 23 23
+ 0.5185 2 3 cbr 1000 ------- 0 2.0 3.0 37 37
+ 0.519 2 3 cbr 1000 ------- 0 2.0 3.0 38 38
- 0.5192 2 3 cbr 1000 ------- 0 2.0 3.0 24 24
+ 0.5195 2 3 cbr 1000 ------- 0 2.0 3.0 39 39
+ 0.52 2 3 cbr 1000 ------- 0 2.0 3.0 40 40
- 0.52 2 3 cbr 1000 ------- 0 2.0 3.0 25 25
+ 0.5205 2 3 cbr 1000 ------- 0 2.0 3.0 41 41
r 0.5208 2 3 cbr 1000 ------- 0 2.0 3.0 0 0
- 0.5208 2 3 cbr 1000 ------- 0 2.0 3.0 26 26
+ 0.521 2 3 cbr 1000 ------- 0 2.0 3.0 42 42
+ 0.5215 2 3 cbr 1000 ------- 0 2.0 3.0 43 43
r 0.5216 2 3 cbr 1000 ------- 0 2.0 3.0 1 1
- 0.5216 2 3 cbr 1000 ------- 0 2.0 3.0 27 27
+ 0.522 2 3 cbr 1000 ------- 0 2.0 3.0 44 44
r 0.5224 2 3 cbr 1000 ------- 0 2.0 3.0 2 2
- 0.5224 2 3 cbr 1000 ------- 0 2.0 3.0 28 28
+ 0.5225 2 3 cbr 1000 ------- 0 2.0 3.0 45 45
+ 0.523 2 3 cbr 1000 ------- 0 2.0 3.0 46 46
r 0.5232 2 3 cbr 1000 ------- 0 2.0 3.0 3 3
- 0.5232 2 3 cbr 1000 ------- 0 2.0 3.0 29 29
+ 0.5235 2 3 cbr 1000 ------- 0 2.0 3.0 47 47
+ 0.524 2 3 cbr 1000 ------- 0 2.0 3.0 48 48
r 0.524 2 3 cbr 1000 ------- 0 2.0 3.0 4 4
- 0.524 2 3 cbr 1000 ------- 0 2.0 3.0 30 30
+ 0.5245 2 3 cbr 1000 ------- 0 2.0 3.0 49 49
r 0.5248 2 3 cbr 1000 ------- 0 2.0 3.0 5 5
- 0.5248 2 3 cbr 1000 ------- 0 2.0 3.0 31 31
+ 0.525 2 3 cbr 1000 ------- 0 2.0 3.0 50 50
+ 0.5255 2 3 cbr 1000 ------- 0 2.0 3.0 51 51
r 0.5256 2 3 cbr 1000 ------- 0 2.0 3.0 6 6
- 0.5256 2 3 cbr 1000 ------- 0 2.0 3.0 32 32
+ 0.526 2 3 cbr 1000 ------- 0 2.0 3.0 52 52
r 0.5264 2 3 cbr 1000 ------- 0 2.0 3.0 7 7
- 0.5264 2 3 cbr 1000 ------- 0 2.0 3.0 33 33
+ 0.5265 2 3 cbr 1000 ------- 0 2.0 3.0 53 53
+ 0.527 2 3 cbr 1000 ------- 0 2.0 3.0 54 54
r 0.5272 2 3 cbr 1000 ------- 0 2.0 3.0 8 8
- 0.5272 2 3 cbr 1000 ------- 0 2.0 3.0 34 34
+ 0.5275 2 3 cbr 1000 ------- 0 2.0 3.0 55 55
+ 0.528 2 3 cbr 1000 ------- 0 2.0 3.0 56 56
r 0.528 2 3 cbr 1000 ------- 0 2.0 3.0 9 9
- 0.528 2 3 cbr 1000 ------- 0 2.0 3.0 35 35
+ 0.5285 2 3 cbr 1000 ------- 0 2.0 3.0 57 57
r 0.5288 2 3 cbr 1000 ------- 0 2.0 3.0 10 10
- 0.5288 2 3 cbr 1000 ------- 0 2.0 3.0 36 36
+ 0.529 2 3 cbr 1000 ------- 0 2.0 3.0 58 58
+ 0.5295 2 3 cbr 1000 ------- 0 2.0 3.0 59 59
r 0.5296 2 3 cbr 1000 ------- 0 2.0 3.0 11 11
- 0.5296 2 3 cbr 1000 ------- 0 2.0 3.0 37 37
+ 0.53 2 3 cbr 1000 ------- 0 2.0 3.0 60 60
r 0.5304 2 3 cbr 1000 ------- 0 2.0 3.0 12 12
- 0.5304 2 3 cbr 1000 ------- 0 2.0 3.0 38 38
+ 0.5305 2 3 cbr 1000 ------- 0 2.0 3.0 61 61
+ 0.531 2 3 cbr 1000 ------- 0 2.0 3.0 62 62
r 0.5312 2 3 cbr 1000 ------- 0 2.0 3.0 13 13
- 0.5312 2 3 cbr 1000 ------- 0 2.0 3.0 39 39
+ 0.5315 2 3 cbr 1000 ------- 0 2.0 3.0 63 63
+ 0.532 2 3 cbr 1000 ------- 0 2.0 3.0 64 64
d 0.532 2 3 cbr 1000 ------- 0 2.0 3.0 64 64
r 0.532 2 3 cbr 1000 ------- 0 2.0 3.0 14 14
- 0.532 2 3 cbr 1000 ------- 0 2.0 3.0 40 40
+ 0.5325 2 3 cbr 1000 ------- 0 2.0 3.0 65 65
r 0.5328 2 3 cbr 1000 ------- 0 2.0 3.0 15 15
- 0.5328 2 3 cbr 1000 ------- 0 2.0 3.0 41 41
+ 0.533 2 3 cbr 1000 ------- 0 2.0 3.0 66 66
+ 0.5335 2 3 cbr 1000 ------- 0 2.0 3.0 67 67
d 0.5335 2 3 cbr 1000 ------- 0 2.0 3.0 67 67
r 0.5336 2 3 cbr 1000 ------- 0 2.0 3.0 16 16
- 0.5336 2 3 cbr 1000 ------- 0 2.0 3.0 42 42
+ 0.534 2 3 cbr 1000 ------- 0 2.0 3.0 68 68
r 0.5344 2 3 cbr 1000 ------- 0 2.0 3.0 17 17
- 0.5344 2 3 cbr 1000 ------- 0 2.0 3.0 43 43
+ 0.5345 2 3 cbr 1000 ------- 0 2.0 3.0 69 69
+ 0.535 2 3 cbr 1000 ------- 0 2.0 3.0 70 70
d 0.535 2 3 cbr 1000 ------- 0 2.0 3.0 70 70
r 0.5352 2 3 cbr 1000 ------- 0 2.0 3.0 18 18
- 0.5352 2 3 cbr 1000 ------- 0 2.0 3.0 44 44
+ 0.5355 2 3 cbr 1000 ------- 0 2.0 3.0 71 71
+ 0.536 2 3 cbr 1000 ------- 0 2.0 3.0 72 72
d 0.536 2 3 cbr 1000 ------- 0 2.0 3.0 72 72
r 0.536 2 3 cbr 1000 ------- 0 2.0 3.0 19 19
- 0.536 2 3 cbr 1000 ------- 0 2.0 3.0 45 45
+ 0.5365 2 3 cbr 1000 ------- 0 2.0 3.0 73 73
r 0.5368 2 3 cbr 1000 ------- 0 2.0 3.0 20 20
- 0.5368 2 3 cbr 1000 ------- 0 2.0 3.0 46 46
+ 0.537 2 3 cbr 1000 ------- 0 2.0 3.0 74 74
+ 0.5375 2 3 cbr 1000 ------- 0 2.0 3.0 75 75
d 0.5375 2 3 cbr 1000 ------- 0 2.0 3.0 75 75
r 0.5376 2 3 cbr 1000 ------- 0 2.0 3.0 21 21
- 0.5376 2 3 cbr 1000 ------- 0 2.0 3.0 47 47
+ 0.538 2 3 cbr 1000 ------- 0 2.0 3.0 76 76
r 0.5384 2 3 cbr 1000 ------- 0 2.0 3.0 22 22
- 0.5384 2 3 cbr 1000 ------- 0 2.0 3.0 48 48
+ 0.5385 2 3 cbr 1000 ------- 0 2.0 3.0 77 77
+ 0.539 2 3 cbr 1000 ------- 0 2.0 3.0 78 78
d 0.539 2 3 cbr 1000 ------- 0 2.0 3.0 78 78
r 0.5392 2 3 cbr 1000 ------- 0 2.0 3.0 23 23
- 0.5392 2 3 cbr 1000 ------- 0 2.0 3.0 49 49
+ 0.5395 2 3 cbr 1000 ------- 0 2.0 3.0 79 79
+ 0.54 2 3 cbr 1000 ------- 0 2.0 3.0 80 80
d 0.54 2 3 cbr 1000 ------- 0 2.0 3.0 80 80
r 0.54 2 3 cbr 1000 ------- 0 2.0 3.0 24 24
- 0.54 2 3 cbr 1000 ------- 0 2.0 3.0 50 50
+ 0.5405 2 3 cbr 1000 ------- 0 2.0 3.0 81 81
r 0.5408 2 3 cbr 1000 ------- 0 2.0 3.0 25 25
- 0.5408 2 3 cbr 1000 ------- 0 2.0 3.0 51 51
+ 0.541 2 3 cbr 1000 ------- 0 2.0 3.0 82 82
+ 0.5415 2 3 cbr 1000 ------- 0 2.0 3.0 83 83
d 0.5415 2 3 cbr 1000 ------- 0 2.0 3.0 83 83
r 0.5416 2 3 cbr 1000 ------- 0 2.0 3.0 26 26
- 0.5416 2 3 cbr 1000 ------- 0 2.0 3.0 52 52
+ 0.542 2 3 cbr 1000 ------- 0 2.0 3.0 84 84
r 0.5424 2 3 cbr 1000 ------- 0 2.0 3.0 27 27
- 0.5424 2 3 cbr 1000 ------- 0 2.0 3.0 53 53
+ 0.5425 2 3 cbr 1000 ------- 0 2.0 3.0 85 85
+ 0.543 2 3 cbr 1000 ------- 0 2.0 3.0 86 86
d 0.543 2 3 cbr 1000 ------- 0 2.0 3.0 86 86
r 0.5432 2 3 cbr 1000 ------- 0 2.0 3.0 28 28
- 0.5432 2 3 cbr 1000 ------- 0 2.0 3.0 54 54
+ 0.5435 2 3 cbr 1000 ------- 0 2.0 3.0 87 87
+ 0.544 2 3 cbr 1000 ------- 0 2.0 3.0 88 88
d 0.544 2 3 cbr 1000 ------- 0 2.0 3.0 88 88
r 0.544 2 3 cbr 1000 ------- 0 2.0 3.0 29 29
- 0.544 2 3 cbr 1000 ------- 0 2.0 3.0 55 55
+ 0.5445 2 3 cbr 1000 ------- 0 2.0 3.0 89 89
r 0.5448 2 3 cbr 1000 ------- 0 2.0 3.0 30 30
- 0.5448 2 3 cbr 1000 ------- 0 2.0 3.0 56 56
+ 0.545 2 3 cbr 1000 ------- 0 2.0 3.0 90 90
+ 0.5455 2 3 cbr 1000 ------- 0 2.0 3.0 91 91
d 0.5455 2 3 cbr 1000 ------- 0 2.0 3.0 91 91
r 0.5456 2 3 cbr 1000 ------- 0 2.0 3.0 31 31
- 0.5456 2 3 cbr 1000 ------- 0 2.0 3.0 57 57
+ 0.546 2 3 cbr 1000 ------- 0 2.0 3.0 92 92
r 0.5464 2 3 cbr 1000 ------- 0 2.0 3.0 32 32
- 0.5464 2 3 cbr 1000 ------- 0 2.0 3.0 58 58
+ 0.5465 2 3 cbr 1000 ------- 0 2.0 3.0 93 93
+ 0.547 2 3 cbr 1000 ------- 0 2.0 3.0 94 94
d 0.547 2 3 cbr 1000 ------- 0 2.0 3.0 94 94
r 0.5472 2 3 cbr 1000 ------- 0 2.0 3.0 33 33
- 0.5472 2 3 cbr 1000 ------- 0 2.0 3.0 59 59
+ 0.5475 2 3 cbr 1000 ------- 0 2.0 3.0 95 95
+ 0.548 2 3 cbr 1000 ------- 0 2.0 3.0 96 96
d 0.548 2 3 cbr 1000 ------- 0 2.0 3.0 96 96
r 0.548 2 3 cbr 1000 ------- 0 2.0 3.0 34 34
- 0.548 2 3 cbr 1000 ------- 0 2.0 3.0 60 60
+ 0.5485 2 3 cbr 1000 ------- 0 2.0 3.0 97 97
r 0.5488 2 3 cbr 1000 ------- 0 2.0 3.0 35 35
- 0.5488 2 3 cbr 1000 ------- 0 2.0 3.0 61 61
+ 0.549 2 3 cbr 1000 ------- 0 2.0 3.0 98 98
+ 0.5495 2 3 cbr 1000 ------- 0 2.0 3.0 99 99
d 0.5495 2 3 cbr 1000 ------- 0 2.0 3.0 99 99
r 0.5496 2 3 cbr 1000 ------- 0 2.0 3.0 36 36
- 0.5496 2 3 cbr 1000 ------- 0 2.0 3.0 62 62
+ 0.55 2 3 cbr 1000 ------- 0 2.0 3.0 100 100
r 0.5504 2 3 cbr 1000 ------- 0 2.0 3.0 37 37
- 0.5504 2 3 cbr 1000 ------- 0 2.0 3.0 63 63
+ 0.5505 2 3 cbr 1000 ------- 0 2.0 3.0 101 101
+ 0.551 2 3 cbr 1000 ------- 0 2.0 3.0 102 102
d 0.551 2 3 cbr 1000 ------- 0 2.0 3.0 102 102
r 0.5512 2 3 cbr 1000 ------- 0 2.0 3.0 38 38
- 0.5512 2 3 cbr 1000 ------- 0 2.0 3.0 65 65
+ 0.5515 2 3 cbr 1000 ------- 0 2.0 3.0 103 103
+ 0.552 2 3 cbr 1000 ------- 0 2.0 3.0 104 104
d 0.552 2 3 cbr 1000 ------- 0 2.0 3.0 104 104
r 0.552 2 3 cbr 1000 ------- 0 2.0 3.0 39 39
- 0.552 2 3 cbr 1000 ------- 0 2.0 3.0 66 66
+ 0.5525 2 3 cbr 1000 ------- 0 2.0 3.0 105 105
r 0.5528 2 3 cbr 1000 ------- 0 2.0 3.0 40 40
- 0.5528 2 3 cbr 1000 ------- 0 2.0 3.0 68 68
+ 0.553 2 3 cbr 1000 ------- 0 2.0 3.0 106 106
+ 0.5535 2 3 cbr 1000 ------- 0 2.0 3.0 107 107
d 0.5535 2 3 cbr 1000 ------- 0 2.0 3.0 107 107
r 0.5536 2 3 cbr 1000 ------- 0 2.0 3.0 41 41
- 0.5536 2 3 cbr 1000 ------- 0 2.0 3.0 69 69
+ 0.554 2 3 cbr 1000 ------- 0 2.0 3.0 108 108
r 0.5544 2 3 cbr 1000 ------- 0 2.0 3.0 42 42
- 0.5544 2 3 cbr 1000 ------- 0 2.0 3.0 71 71
+ 0.5545 2 3 cbr 1000 ------- 0 2.0 3.0 109 109
+ 0.555 2 3 cbr 1000 ------- 0 2.0 3.0 110 110
d 0.555 2 3 cbr 1000 ------- 0 2.0 3.0 110 110
r 0.5552 2 3 cbr 1000 ------- 0 2.0 3.0 43 43
- 0.5552 2 3 cbr 1000 ------- 0 2.0 3.0 73 73
+ 0.5555 2 3 cbr 1000 ------- 0 2.0 3.0 111 111
+ 0.556 2 3 cbr 1000 ------- 0 2.0 3.0 112 112
d 0.556 2 3 cbr 1000 ------- 0 2.0 3.0 112 112
r 0.556 2 3 cbr 1000 ------- 0 2.0 3.0 44 44
- 0.556 2 3 cbr 1000 ------- 0 2.0 3.0 74 74
+ 0.5565 2 3 cbr 1000 ------- 0 2.0 3.0 113 113
r 0.5568 2 3 cbr 1000 ------- 0 2.0 3.0 45 45
- 0.5568 2 3 cbr 1000 ------- 0 2.0 3.0 76 76
+ 0.557 2 3 cbr 1000 ------- 0 2.0 3.0 114 114
+ 0.5575 2 3 cbr 1000 ------- 0 2.0 3.0 115 115
d 0.5575 2 3 cbr 1000 ------- 0 2.0 3.0 115 115
r 0.5576 2 3 cbr 1000 ------- 0 2.0 3.0 46 46
- 0.5576 2 3 cbr 1000 ------- 0 2.0 3.0 77 77
+ 0.558 2 3 cbr 1000 ------- 0 2.0 3.0 116 116
r 0.5584 2 3 cbr 1000 ------- 0 2.0 3.0 47 47
- 0.5584 2 3 cbr 1000 ------- 0 2.0 3.0 79 79
+ 0.5585 2 3 cbr 1000 ------- 0 2.0 3.0 117 117
+ 0.559 2 3 cbr 1000 ------- 0 2.0 3.0 118 118
d 0.559 2 3 cbr 1000 ------- 0 2.0 3.0 118 118
r 0.5592 2 3 cbr 1000 ------- 0 2.0 3.0 48 48
- 0.5592 2 3 cbr 1000 ------- 0 2.0 3.0 81 81
+ 0.5595 2 3 cbr 1000 ------- 0 2.0 3.0 119 119
+ 0.56 2 3 cbr 1000 ------- 0 2.0 3.0 120 120
d 0.56 2 3 cbr 1000 ------- 0 2.0 3.0 120 120
r 0.56 2 3 cbr 1000 ------- 0 2.0 3.0 49 49
- 0.56 2 3 cbr 1000 ------- 0 2.0 3.0 82 82
+ 0.5605 2 3 cbr 1000 ------- 0 2.0 3.0 121 121
r 0.5608 2 3 cbr 1000 ------- 0 2.0 3.0 50 50
- 0.5608 2 3 cbr 1000 ------- 0 2.0 3.0 84 84
+ 0.561 2 3 cbr 1000 ------- 0 2.0 3.0 122 122
+ 0.5615 2 3 cbr 1000 ------- 0 2.0 3.0 123 123
d 0.5615 2 3 cbr 1000 ------- 0 2.0 3.0 123 123
r 0.5616 2 3 cbr 1000 ------- 0 2.0 3.0 51 51
- 0.5616 2 3 cbr 1000 ------- 0 2.0 3.0 85 85
+ 0.562 2 3 cbr 1000 ------- 0 2.0 3.0 124 124
r 0.5624 2 3 cbr 1000 ------- 0 2.0 3.0 52 52
- 0.5624 2 3 cbr 1000 ------- 0 2.0 3.0 87 87
+ 0.5625 2 3 cbr 1000 ------- 0 2.0 3.0 125 125
+ 0.563 2 3 cbr 1000 ------- 0 2.0 3.0 126 126
d 0.563 2 3 cbr 1000 ------- 0 2.0 3.0 126 126
r 0.5632 2 3 cbr 1000 ------- 0 2.0 3.0 53 53
- 0.5632 2 3 cbr 1000 ------- 0 2.0 3.0 89 89
+ 0.5635 2 3 cbr 1000 ------- 0 2.0 3.0 127 127
+ 0.564 2 3 cbr 1000 ------- 0 2.0 3.0 128 128
d 0.564 2 3 cbr 1000 ------- 0 2.0 3.0 128 128
r 0.564 2 3 cbr 1000 ------- 0 2.0 3.0 54 54
- 0.564 2 3 cbr 1000 ------- 0 2.0 3.0 90 90
+ 0.5645 2 3 cbr 1000 ------- 0 2.0 3.0 129 129
r 0.5648 2 3 cbr 1000 ------- 0 2.0 3.0 55 55
- 0.5648 2 3 cbr 1000 ------- 0 2.0 3.0 92 92
+ 0.565 2 3 cbr 1000 ------- 0 2.0 3.0 130 130
+ 0.5655 2 3 cbr 1000 ------- 0 2.0 3.0 131 131
d 0.5655 2 3 cbr 1000 ------- 0 2.0 3.0 131 131
r 0.5656 2 3 cbr 1000 ------- 0 2.0 3.0 56 56
- 0.5656 2 3 cbr 1000 ------- 0 2.0 3.0 93 93
+ 0.566 2 3 cbr 1000 ------- 0 2.0 3.0 132 132
r 0.5664 2 3 cbr 1000 ------- 0 2.0 3.0 57 57
- 0.5664 2 3 cbr 1000 ------- 0 2.0 3.0 95 95
+ 0.5665 2 3 cbr 1000 ------- 0 2.0 3.0 133 133
+ 0.567 2 3 cbr 1000 ------- 0 2.0 3.0 134 134
d 0.567 2 3 cbr 1000 ------- 0 2.0 3.0 134 134
r 0.5672 2 3 cbr 1000 ------- 0 2.0 3.0 58 58
- 0.5672 2 3 cbr 1000 ------- 0 2.0 3.0 97 97
+ 0.5675 2 3 cbr 1000 ------- 0 2.0 3.0 135 135
+ 0.568 2 3 cbr 1000 ------- 0 2.0 3.0 136 136
d 0.568 2 3 cbr 1000 ------- 0 2.0 3.0 136 136
r 0.568 2 3 cbr 1000 ------- 0 2.0 3.0 59 59
- 0.568 2 3 cbr 1000 ------- 0 2.0 3.0 98 98
+ 0.5685 2 3 cbr 1000 ------- 0 2.0 3.0 137 137
r 0.5688 2 3 cbr 1000 ------- 0 2.0 3.0 60 60
- 0.5688 2 3 cbr 1000 ------- 0 2.0 3.0 100 100
+ 0.569 2 3 cbr 1000 ------- 0 2.0 3.0 138 138
+ 0.5695 2 3 cbr 1000 ------- 0 2.0 3.0 139 139
d 0.5695 2 3 cbr 1000 ------- 0 2.0 3.0 139 139
r 0.5696 2 3 cbr 1000 ------- 0 2.0 3.0 61 61
- 0.5696 2 3 cbr 1000 ------- 0 2.0 3.0 101 101
+ 0.57 2 3 cbr 1000 ------- 0 2.0 3.0 140 140
r 0.5704 2 3 cbr 1000 ------- 0 2.0 3.0 62 62
- 0.5704 2 3 cbr 1000 ------- 0 2.0 3.0 103 103
+ 0.5705 2 3 cbr 1000 ------- 0 2.0 3.0 141 141
+ 0.571 2 3 cbr 1000 ------- 0 2.0 3.0 142 142
d 0.571 2 3 cbr 1000 ------- 0 2.0 3.0 142 142
r 0.5712 2 3 cbr 1000 ------- 0 2.0 3.0 63 63
- 0.5712 2 3 cbr 1000 ------- 0 2.0 3.0 105 105
+ 0.5715 2 3 cbr 1000 ------- 0 2.0 3.0 143 143
+ 0.572 2 3 cbr 1000 ------- 0 2.0 3.0 144 144
d 0.572 2 3 cbr 1000 ------- 0 2.0 3.0 144 144
r 0.572 2 3 cbr 1000 ------- 0 2.0 3.0 65 65
- 0.572 2 3 cbr 1000 ------- 0 2.0 3.0 106 106
+ 0.5725 2 3 cbr 1000 ------- 0 2.0 3.0 145 145
r 0.5728 2 3 cbr 1000 ------- 0 2.0 3.0 66 66
- 0.5728 2 3 cbr 1000 ------- 0 2.0 3.0 108 108
+ 0.573 2 3 cbr 1000 ------- 0 2.0 3.0 146 146
+ 0.5735 2 3 cbr 1000 ------- 0 2.0 3.0 147 147
d 0.5735 2 3 cbr 1000 ------- 0 2.0 3.0 147 147
r 0.5736 2 3 cbr 1000 ------- 0 2.0 3.0 68 68
- 0.5736 2 3 cbr 1000 ------- 0 2.0 3.0 109 109
+ 0.574 2 3 cbr 1000 ------- 0 2.0 3.0 148 148
r 0.5744 2 3 cbr 1000 ------- 0 2.0 3.0 69 69
- 0.5744 2 3 cbr 1000 ------- 0 2.0 3.0 111 111
+ 0.5745 2 3 cbr 1000 ------- 0 2.0 3.0 149 149
+ 0.575 2 3 cbr 1000 ------- 0 2.0 3.0 150 150
d 0.575 2 3 cbr 1000 ------- 0 2.0 3.0 150 150
r 0.5752 2 3 cbr 1000 ------- 0 2.0 3.0 71 71
- 0.5752 2 3 cbr 1000 ------- 0 2.0 3.0 113 113
+ 0.5755 2 3 cbr 1000 ------- 0 2.0 3.0 151 151
+ 0.576 2 3 cbr 1000 ------- 0 2.0 3.0 152 152
d 0.576 2 3 cbr 1000 ------- 0 2.0 3.0 152 152
r 0.576 2 3 cbr 1000 ------- 0 2.0 3.0 73 73
- 0.576 2 3 cbr 1000 ------- 0 2.0 3.0 114 114
+ 0.5765 2 3 cbr 1000 ------- 0 2.0 3.0 153 153
r 0.5768 2 3 cbr 1000 ------- 0 2.0 3.0 74 74
- 0.5768 2 3 cbr 1000 ------- 0 2.0 3.0 116 116
+ 0.577 2 3 cbr 1000 ------- 0 2.0 3.0 154 154
+ 0.5775 2 3 cbr 1000 ------- 0 2.0 3.0 155 155
d 0.5775 2 3 cbr 1000 ------- 0 2.0 3.0 155 155
r 0.5776 2 3 cbr 1000 ------- 0 2.0 3.0 76 76
- 0.5776 2 3 cbr 1000 ------- 0 2.0 3.0 117 117
+ 0.578 2 3 cbr 1000 ------- 0 2.0 3.0 156 156
r 0.5784 2 3 cbr 1000 ------- 0 2.0 3.0 77 77
- 0.5784 2 3 cbr 1000 ------- 0 2.0 3.0 119 119
+ 0.5785 2 3 cbr 1000 ------- 0 2.0 3.0 157 157
+ 0.579 2 3 cbr 1000 ------- 0 2.0 3.0 158 158
d 0.579 2 3 cbr 1000 ------- 0 2.0 3.0 158 158
r 0.5792 2 3 cbr 1000 ------- 0 2.0 3.0 79 79
- 0.5792 2 3 cbr 1000 ------- 0 2.0 3.0 121 121
+ 0.5795 2 3 cbr 1000 ------- 0 2.0 3.0 159 159
+ 0.58 2 3 cbr 1000 ------- 0 2.0 3.0 160 160
d 0.58 2 3 cbr 1000 ------- 0 2.0 3.0 160 160
r 0.58 2 3 cbr 1000 ------- 0 2.0 3.0 81 81
- 0.58 2 3 cbr 1000 ------- 0 2.0 3.0 122 122
+ 0.5805 2 3 cbr 1000 ------- 0 2.0 3.0 161 161
r 0.5808 2 3 cbr 1000 ------- 0 2.0 3.0 82 82
- 0.5808 2 3 cbr 1000 ------- 0 2.0 3.0 124 124
+ 0.581 2 3 cbr 1000 ------- 0 2.0 3.0 162 162
+ 0.5815 2 3 cbr 1000 ------- 0 2.0 3.0 163 163
d 0.5815 2 3 cbr 1000 ------- 0 2.0 3.0 163 163
r 0.5816 2 3 cbr 1000 ------- 0 2.0 3.0 84 84
- 0.5816 2 3 cbr 1000 ------- 0 2.0 3.0 125 125
+ 0.582 2 3 cbr 1000 ------- 0 2.0 3.0 164 164
r 0.5824 2 3 cbr 1000 ------- 0 2.0 3.0 85 85
- 0.5824 2 3 cbr 1000 ------- 0 2.0 3.0 127 127
+ 0.5825 2 3 cbr 1000 ------- 0 2.0 3.0 165 165
+ 0.583 2 3 cbr 1000 ------- 0 2.0 3.0 166 166
d 0.583 2 3 cbr 1000 ------- 0 2.0 3.0 166 166
r 0.5832 2 3 cbr 1000 ------- 0 2.0 3.0 87 87
- 0.5832 2 3 cbr 1000 ------- 0 2.0 3.0 129 129
+ 0.5835 2 3 cbr 1000 ------- 0 2.0 3.0 167 167
+ 0.584 2 3 cbr 1000 ------- 0 2.0 3.0 168 168
d 0.584 2 3 cbr 1000 ------- 0 2.0 3.0 168 168
r 0.584 2 3 cbr 1000 ------- 0 2.0 3.0 89 89
- 0.584 2 3 cbr 1000 ------- 0 2.0 3.0 130 130
+ 0.5845 2 3 cbr 1000 ------- 0 2.0 3.0 169 169
r 0.5848 2 3 cbr 1000 ------- 0 2.0 3.0 90 90
- 0.5848 2 3 cbr 1000 ------- 0 2.0 3.0 132 132
+ 0.585 2 3 cbr 1000 ------- 0 2.0 3.0 170 170
+ 0.5855 2 3 cbr 1000 ------- 0 2.0 3.0 171 171
d 0.5855 2 3 cbr 1000 ------- 0 2.0 3.0 171 171
r 0.5856 2 3 cbr 1000 ------- 0 2.0 3.0 92 92
- 0.5856 2 3 cbr 1000 ------- 0 2.0 3.0 133 133
+ 0.586 2 3 cbr 1000 ------- 0 2.0 3.0 172 172
r 0.5864 2 3 cbr 1000 ------- 0 2.0 3.0 93 93
- 0.5864 2 3 cbr 1000 ------- 0 2.0 3.0 135 135
+ 0.5865 2 3 cbr 1000 ------- 0 2.0 3.0 173 173
+ 0.587 2 3 cbr 1000 ------- 0 2.0 3.0 174 174
d 0.587 2 3 cbr 1000 ------- 0 2.0 3.0 174 174
r 0.5872 2 3 cbr 1000 ------- 0 2.0 3.0 95 95
- 0.5872 2 3 cbr 1000 ------- 0 2.0 3.0 137 137
+ 0.5875 2 3 cbr 1000 ------- 0 2.0 3.0 175 175
+ 0.588 2 3 cbr 1000 ------- 0 2.0 3.0 176 176
d 0.588 2 3 cbr 1000 ------- 0 2.0 3.0 176 176
r 0.588 2 3 cbr 1000 ------- 0 2.0 3.0 97 97
- 0.588 2 3 cbr 1000 ------- 0 2.0 3.0 138 138
+ 0.5885 2 3 cbr 1000 ------- 0 2.0 3.0 177 177
r 0.5888 2 3 cbr 1000 ------- 0 2.0 3.0 98 98
- 0.5888 2 3 cbr 1000 ------- 0 2.0 3.0 140 140
+ 0.589 2 3 cbr 1000 ------- 0 2.0 3.0 178 178
+ 0.5895 2 3 cbr 1000 ------- 0 2.0 3.0 179 179
d 0.5895 2 3 cbr 1000 ------- 0 2.0 3.0 179 179
r 0.5896 2 3 cbr 1000 ------- 0 2.0 3.0 100 100
- 0.5896 2 3 cbr 1000 ------- 0 2.0 3.0 141 141
+ 0.59 2 3 cbr 1000 ------- 0 2.0 3.0 180 180
r 0.5904 2 3 cbr 1000 ------- 0 2.0 3.0 101 101
- 0.5904 2 3 cbr 1000 ------- 0 2.0 3.0 143 143
+ 0.5905 2 3 cbr 1000 ------- 0 2.0 3.0 181 181
+ 0.591 2 3 cbr 1000 ------- 0 2.0 3.0 182 182
d 0.591 2 3 cbr 1000 ------- 0 2.0 3.0 182 182
r 0.5912 2 3 cbr 1000 ------- 0 2.0 3.0 103 103
- 0.5912 2 3 cbr 1000 ------- 0 2.0 3.0 145 145
+ 0.5915 2 3 cbr 1000 ------- 0 2.0 3.0 183 183
+ 0.592 2 3 cbr 1000 ------- 0 2.0 3.0 184 184
d 0.592 2 3 cbr 1000 ------- 0 2.0 3.0 184 184
r 0.592 2 3 cbr 1000 ------- 0 2.0 3.0 105 105
- 0.592 2 3 cbr 1000 ------- 0 2.0 3.0 146 146
+ 0.5925 2 3 cbr 1000 ------- 0 2.0 3.0 185 185
r 0.5928 2 3 cbr 1000 ------- 0 2.0 3.0 106 106
- 0.5928 2 3 cbr 1000 ------- 0 2.0 3.0 148 148
+ 0.593 2 3 cbr 1000 ------- 0 2.0 3.0 186 186
+ 0.5935 2 3 cbr 1000 ------- 0 2.0 3.0 187 187
d 0.5935 2 3 cbr 1000 ------- 0 2.0 3.0 187 187
r 0.5936 2 3 cbr 1000 ------- 0 2.0 3.0 108 108
- 0.5936 2 3 cbr 1000 ------- 0 2.0 3.0 149 149
+ 0.594 2 3 cbr 1000 ------- 0 2.0 3.0 188 188
r 0.5944 2 3 cbr 1000 ------- 0 2.0 3.0 109 109
- 0.5944 2 3 cbr 1000 ------- 0 2.0 3.0 151 151
+ 0.5945 2 3 cbr 1000 ------- 0 2.0 3.0 189 189
+ 0.595 2 3 cbr 1000 ------- 0 2.0 3.0 190 190
d 0.595 2 3 cbr 1000 ------- 0 2.0 3.0 190 190
r 0.5952 2 3 cbr 1000 ------- 0 2.0 3.0 111 111
- 0.5952 2 3 cbr 1000 ------- 0 2.0 3.0 153 153
+ 0.5955 2 3 cbr 1000 ------- 0 2.0 3.0 191 191
+ 0.596 2 3 cbr 1000 ------- 0 2.0 3.0 192 192
d 0.596 2 3 cbr 1000 ------- 0 2.0 3.0 192 192
r 0.596 2 3 cbr 1000 ------- 0 2.0 3.0 113 113
- 0.596 2 3 cbr 1000 ------- 0 2.0 3.0 154 154
+ 0.5965 2 3 cbr 1000 ------- 0 2.0 3.0 193 193
r 0.5968 2 3 cbr 1000 ------- 0 2.0 3.0 114 114
- 0.5968 2 3 cbr 1000 ------- 0 2.0 3.0 156 156
+ 0.597 2 3 cbr 1000 ------- 0 2.0 3.0 194 194
+ 0.5975 2 3 cbr 1000 ------- 0 2.0 3.0 195 195
d 0.5975 2 3 cbr 1000 ------- 0 2.0 3.0 195 195
r 0.5976 2 3 cbr 1000 ------- 0 2.0 3.0 116 116
- 0.5976 2 3 cbr 1000 ------- 0 2.0 3.0 157 157
+ 0.598 2 3 cbr 1000 ------- 0 2.0 3.0 196 196
r 0.5984 2 3 cbr 1000 ------- 0 2.0 3.0 117 117
- 0.5984 2 3 cbr 1000 ------- 0 2.0 3.0 159 159
+ 0.5985 2 3 cbr 1000 ------- 0 2.0 3.0 197 197
+ 0.599 2 3 cbr 1000 ------- 0 2.0 3.0 198 198
d 0.599 2 3 cbr 1000 ------- 0 2.0 3.0 198 198
r 0.5992 2 3 cbr 1000 ------- 0 2.0 3.0 119 119
- 0.5992 2 3 cbr 1000 ------- 0 2.0 3.0 161 161
+ 0.5995 2 3 cbr 1000 ------- 0 2.0 3.0 199 199
+ 0.6 2 3 cbr 1000 ------- 0 2.0 3.0 200 200
d 0.6 2 3 cbr 1000 ------- 0 2.0 3.0 200 200
+ 0.6 0 2 tcp 40 ------- 1 0.0 4.0 0 201
- 0.6 0 2 tcp 40 ------- 1 0.0 4.0 0 201
r 0.6 2 3 cbr 1000 ------- 0 2.0 3.0 121 121
- 0.6 2 3 cbr 1000 ------- 0 2.0 3.0 162 162
+ 0.6005 2 3 cbr 1000 ------- 0 2.0 3.0 201 202
r 0.6008 2 3 cbr 1000 ------- 0 2.0 3.0 122 122
- 0.6008 2 3 cbr 1000 ------- 0 2.0 3.0 164 164
+ 0.601 2 3 cbr 1000 ------- 0 2.0 3.0 202 203
+ 0.6015 2 3 cbr 1000 ------- 0 2.0 3.0 203 204
d 0.6015 2 3 cbr 1000 ------- 0 2.0 3.0 203 204
r 0.6016 2 3 cbr 1000 ------- 0 2.0 3.0 124 124
- 0.6016 2 3 cbr 1000 ------- 0 2.0 3.0 165 165
+ 0.602 2 3 cbr 1000 ------- 0 2.0 3.0 204 205
r 0.6024 2 3 cbr 1000 ------- 0 2.0 3.0 125 125
- 0.6024 2 3 cbr 1000 ------- 0 2.0 3.0 167 167
+ 0.6025 2 3 cbr 1000 ------- 0 2.0 3.0 205 206
+ 0.603 2 3 cbr 1000 ------- 0 2.0 3.0 206 207
d 0.603 2 3 cbr 1000 ------- 0 2.0 3.0 206 207
r 0.6032 2 3 cbr 1000 ------- 0 2.0 3.0 127 127
- 0.6032 2 3 cbr 1000 ------- 0 2.0 3.0 169 169
+ 0.6035 2 3 cbr 1000 ------- 0 2.0 3.0 207 208
+ 0.604 2 3 cbr 1000 ------- 0 2.0 3.0 208 209
d 0.604 2 3 cbr 1000 ------- 0 2.0 3.0 208 209
r 0.604 2 3 cbr 1000 ------- 0 2.0 3.0 129 129
- 0.604 2 3 cbr 1000 ------- 0 2.0 3.0 170 170
+ 0.6045 2 3 cbr 1000 ------- 0 2.0 3.0 209 210
r 0.6048 2 3 cbr 1000 ------- 0 2.0 3.0 130 130
- 0.6048 2 3 cbr 1000 ------- 0 2.0 3.0 172 172
+ 0.605 2 3 cbr 1000 ------- 0 2.0 3.0 210 211
+ 0.6055 2 3 cbr 1000 ------- 0 2.0 3.0 211 212
d 0.6055 2 3 cbr 1000 ------- 0 2.0 3.0 211 212
r 0.6056 2 3 cbr 1000 ------- 0 2.0 3.0 132 132
- 0.6056 2 3 cbr 1000 ------- 0 2.0 3.0 173 173
+ 0.606 2 3 cbr 1000 ------- 0 2.0 3.0 212 213
r 0.6064 2 3 cbr 1000 ------- 0 2.0 3.0 133 133
- 0.6064 2 3 cbr 1000 ------- 0 2.0 3.0 175 175
+ 0.6065 2 3 cbr 1000 ------- 0 2.0 3.0 213 214
+ 0.607 2 3 cbr 1000 ------- 0 2.0 3.0 214 215
d 0.607 2 3 cbr 1000 ------- 0 2.0 3.0 214 215
r 0.6072 2 3 cbr 1000 ------- 0 2.0 3.0 135 135
- 0.6072 2 3 cbr 1000 ------- 0 2.0 3.0 177 177
+ 0.6075 2 3 cbr 1000 ------- 0 2.0 3.0 215 216
+ 0.608 2 3 cbr 1000 ------- 0 2.0 3.0 216 217
d 0.608 2 3 cbr 1000 ------- 0 2.0 3.0 216 217
r 0.608 2 3 cbr 1000 ------- 0 2.0 3.0 137 137
- 0.608 2 3 cbr 1000 ------- 0 2.0 3.0 178 178
+ 0.6085 2 3 cbr 1000 ------- 0 2.0 3.0 217 218
r 0.6088 2 3 cbr 1000 ------- 0 2.0 3.0 138 138
- 0.6088 2 3 cbr 1000 ------- 0 2.0 3.0 180 180
+ 0.609 2 3 cbr 1000 ------- 0 2.0 3.0 218 219
+ 0.6095 2 3 cbr 1000 ------- 0 2.0 3.0 219 220
d 0.6095 2 3 cbr 1000 ------- 0 2.0 3.0 219 220
r 0.6096 2 3 cbr 1000 ------- 0 2.0 3.0 140 140
- 0.6096 2 3 cbr 1000 ------- 0 2.0 3.0 181 181
+ 0.61 2 3 cbr 1000 ------- 0 2.0 3.0 220 221
r 0.610032 0 2 tcp 40 ------- 1 0.0 4.0 0 201
+ 0.610032 2 3 tcp 40 ------- 1 0.0 4.0 0 201
d 0.610032 2 3 tcp 40 ------- 1 0.0 4.0 0 201
r 0.6104 2 3 cbr 1000 ------- 0 2.0 3.0 141 141
- 0.6104 2 3 cbr 1000 ------- 0 2.0 3.0 183 183
+ 0.6105 2 3 cbr 1000 ------- 0 2.0 3.0 221 222
+ 0.611 2 3 cbr 1000 ------- 0 2.0 3.0 222 223
d 0.611 2 3 cbr 1000 ------- 0 2.0 3.0 222 223
r 0.6112 2 3 cbr 1000 ------- 0 2.0 3.0 143 143
- 0.6112 2 3 cbr 1000 ------- 0 2.0 3.0 185 185
+ 0.6115 2 3 cbr 1000 ------- 0 2.0 3.0 223 224
+ 0.612 2 3 cbr 1000 ------- 0 2.0 3.0 224 225
d 0.612 2 3 cbr 1000 ------- 0 2.0 3.0 224 225
r 0.612 2 3 cbr 1000 ------- 0 2.0 3.0 145 145
- 0.612 2 3 cbr 1000 ------- 0 2.0 3.0 186 186
+ 0.6125 2 3 cbr 1000 ------- 0 2.0 3.0 225 226
r 0.6128 2 3 cbr 1000 ------- 0 2.0 3.0 146 146
- 0.6128 2 3 cbr 1000 ------- 0 2.0 3.0 188 188
+ 0.613 2 3 cbr 1000 ------- 0 2.0 3.0 226 227
+ 0.6135 2 3 cbr 1000 ------- 0 2.0 3.0 227 228
d 0.6135 2 3 cbr 1000 ------- 0 2.0 3.0 227 228
r 0.6136 2 3 cbr 1000 ------- 0 2.0 3.0 148 148
- 0.6136 2 3 cbr 1000 ------- 0 2.0 3.0 189 189
+ 0.614 2 3 cbr 1000 ------- 0 2.0 3.0 228 229
r 0.6144 2 3 cbr 1000 ------- 0 2.0 3.0 149 149
- 0.6144 2 3 cbr 1000 ------- 0 2.0 3.0 191 191
+ 0.6145 2 3 cbr 1000 ------- 0 2.0 3.0 229 230
+ 0.615 2 3 cbr 1000 ------- 0 2.0 3.0 230 231
d 0.615 2 3 cbr 1000 ------- 0 2.0 3.0 230 231
r 0.6152 2 3 cbr 1000 ------- 0 2.0 3.0 151 151
- 0.6152 2 3 cbr 1000 ------- 0 2.0 3.0 193 193
+ 0.6155 2 3 cbr 1000 ------- 0 2.0 3.0 231 232
+ 0.616 2 3 cbr 1000 ------- 0 2.0 3.0 232 233
d 0.616 2 3 cbr 1000 ------- 0 2.0 3.0 232 233
r 0.616 2 3 cbr 1000 ------- 0 2.0 3.0 153 153
- 0.616 2 3 cbr 1000 ------- 0 2.0 3.0 194 194
+ 0.6165 2 3 cbr 1000 ------- 0 2.0 3.0 233 234
r 0.6168 2 3 cbr 1000 ------- 0 2.0 3.0 154 154
- 0.6168 2 3 cbr 1000 ------- 0 2.0 3.0 196 196
+ 0.617 2 3 cbr 1000 ------- 0 2.0 3.0 234 235
+ 0.6175 2 3 cbr 1000 ------- 0 2.0 3.0 235 236
d 0.6175 2 3 cbr 1000 ------- 0 2.0 3.0 235 236
r 0.6176 2 3 cbr 1000 ------- 0 2.0 3.0 156 156
- 0.6176 2 3 cbr 1000 ------- 0 2.0 3.0 197 197
+ 0.618 2 3 cbr 1000 ------- 0 2.0 3.0 236 237
r 0.6184 2 3 cbr 1000 ------- 0 2.0 3.0 157 157
- 0.6184 2 3 cbr 1000 ------- 0 2.0 3.0 199 199
+ 0.6185 2 3 cbr 1000 ------- 0 2.0 3.0 237 238
+ 0.619 2 3 cbr 1000 ------- 0 2.0 3.0 238 239
d 0.619 2 3 cbr 1000 ------- 0 2.0 3.0 238 239
r 0.6192 2 3 cbr 1000 ------- 0 2.0 3.0 159 159
- 0.6192 2 3 cbr 1000 ------- 0 2.0 3.0 201 202
+ 0.6195 2 3 cbr 1000 ------- 0 2.0 3.0 239 240
+ 0.62 2 3 cbr 1000 ------- 0 2.0 3.0 240 241
d 0.62 2 3 cbr 1000 ------- 0 2.0 3.0 240 241
r 0.62 2 3 cbr 1000 ------- 0 2.0 3.0 161 161
- 0.62 2 3 cbr 1000 ------- 0 2.0 3.0 202 203
+ 0.6205 2 3 cbr 1000 ------- 0 2.0 3.0 241 242
r 0.6208 2 3 cbr 1000 ------- 0 2.0 3.0 162 162
- 0.6208 2 3 cbr 1000 ------- 0 2.0 3.0 204 205
+ 0.621 2 3 cbr 1000 ------- 0 2.0 3.0 242 243
+ 0.6215 2 3 cbr 1000 ------- 0 2.0 3.0 243 244
d 0.6215 2 3 cbr 1000 ------- 0 2.0 3.0 243 244
r 0.6216 2 3 cbr 1000 ------- 0 2.0 3.0 164 164
- 0.6216 2 3 cbr 1000 ------- 0 2.0 3.0 205 206
+ 0.622 2 3 cbr 1000 ------- 0 2.0 3.0 244 245
r 0.6224 2 3 cbr 1000 ------- 0 2.0 3.0 165 165
- 0.6224 2 3 cbr 1000 ------- 0 2.0 3.0 207 208
+ 0.6225 2 3 cbr 1000 ------- 0 2.0 3.0 245 246
+ 0.623 2 3 cbr 1000 ------- 0 2.0 3.0 246 247
d 0.623 2 3 cbr 1000 ------- 0 2.0 3.0 246 247
r 0.6232 2 3 cbr 1000 ------- 0 2.0 3.0 167 167
- 0.6232 2 3 cbr 1000 ------- 0 2.0 3.0 209 210
+ 0.6235 2 3 cbr 1000 ------- 0 2.0 3.0 247 248
+ 0.624 2 3 cbr 1000 ------- 0 2.0 3.0 248 249
d 0.624 2 3 cbr 1000 ------- 0 2.0 3.0 248 249
r 0.624 2 3 cbr 1000 ------- 0 2.0 3.0 169 169
- 0.624 2 3 cbr 1000 ------- 0 2.0 3.0 210 211
+ 0.6245 2 3 cbr 1000 ------- 0 2.0 3.0 249 250
r 0.6248 2 3 cbr 1000 ------- 0 2.0 3.0 170 170
- 0.6248 2 3 cbr 1000 ------- 0 2.0 3.0 212 213
+ 0.625 2 3 cbr 1000 ------- 0 2.0 3.0 250 251
+ 0.6255 2 3 cbr 1000 ------- 0 2.0 3.0 251 252
d 0.6255 2 3 cbr 1000 ------- 0 2.0 3.0 251 252
r 0.6256 2 3 cbr 1000 ------- 0 2.0 3.0 172 172
- 0.6256 2 3 cbr 1000 ------- 0 2.0 3.0 213 214
+ 0.626 2 3 cbr 1000 ------- 0 2.0 3.0 252 253
r 0.6264 2 3 cbr 1000 ------- 0 2.0 3.0 173 173
- 0.6264 2 3 cbr 1000 ------- 0 2.0 3.0 215 216
+ 0.6265 2 3 cbr 1000 ------- 0 2.0 3.0 253 254
+ 0.627 2 3 cbr 1000 ------- 0 2.0 3.0 254 255
d 0.627 2 3 cbr 1000 ------- 0 2.0 3.0 254 255
r 0.6272 2 3 cbr 1000 ------- 0 2.0 3.0 175 175
- 0.6272 2 3 cbr 1000 ------- 0 2.0 3.0 217 218
+ 0.6275 2 3 cbr 1000 ------- 0 2.0 3.0 255 256
+ 0.628 2 3 cbr 1000 ------- 0 2.0 3.0 256 257
d 0.628 2 3 cbr 1000 ------- 0 2.0 3.0 256 257
r 0.628 2 3 cbr 1000 ------- 0 2.0 3.0 177 177
- 0.628 2 3 cbr 1000 ------- 0 2.0 3.0 218 219
+ 0.6285 2 3 cbr 1000 ------- 0 2.0 3.0 257 258
r 0.6288 2 3 cbr 1000 ------- 0 2.0 3.0 178 178
- 0.6288 2 3 cbr 1000 ------- 0 2.0 3.0 220 221
+ 0.629 2 3 cbr 1000 ------- 0 2.0 3.0 258 259
+ 0.6295 2 3 cbr 1000 ------- 0 2.0 3.0 259 260
d 0.6295 2 3 cbr 1000 ------- 0 2.0 3.0 259 260
r 0.6296 2 3 cbr 1000 ------- 0 2.0 3.0 180 180
- 0.6296 2 3 cbr 1000 ------- 0 2.0 3.0 221 222
+ 0.63 2 3 cbr 1000 ------- 0 2.0 3.0 260 261
r 0.6304 2 3 cbr 1000 ------- 0 2.0 3.0 181 181
- 0.6304 2 3 cbr 1000 ------- 0 2.0 3.0 223 224
+ 0.6305 2 3 cbr 1000 ------- 0 2.0 3.0 261 262
+ 0.631 2 3 cbr 1000 ------- 0 2.0 3.0 262 263