+ 0.4 2 3 cbr 1000 ------- 0 2.0 3.0 0 0
- 0.4 2 3 cbr 1000 ------- 0 2.0 3.0 0 0
+ 0.4008 2 3 cbr 1000 ------- 0 2.0 3.0 1 1
- 0.4008 2 3 cbr 1000 ------- 0 2.0 3.0 1 1
+ 0.4016 2 3 cbr 1000 ------- 0 2.0 3.0 2 2
- 0.4016 2 3 cbr 1000 ------- 0 2.0 3.0 2 2
+ 0.4024 2 3 cbr 1000 ------- 0 2.0 3.0 3 3
- 0.4024 2 3 cbr 1000 ------- 0 2.0 3.0 3 3
+ 0.4032 2 3 cbr 1000 ------- 0 2.0 3.0 4 4
- 0.4032 2 3 cbr 1000 ------- 0 2.0 3.0 4 4
+ 0.404 2 3 cbr 1000 ------- 0 2.0 3.0 5 5
- 0.404 2 3 cbr 1000 ------- 0 2.0 3.0 5 5
+ 0.4048 2 3 cbr 1000 ------- 0 2.0 3.0 6 6
- 0.4048 2 3 cbr 1000 ------- 0 2.0 3.0 6 6
+ 0.4056 2 3 cbr 1000 ------- 0 2.0 3.0 7 7
- 0.4056 2 3 cbr 1000 ------- 0 2.0 3.0 7 7
+ 0.4064 2 3 cbr 1000 ------- 0 2.0 3.0 8 8
- 0.4064 2 3 cbr 1000 ------- 0 2.0 3.0 8 8
+ 0.4072 2 3 cbr 1000 ------- 0 2.0 3.0 9 9
- 0.4072 2 3 cbr 1000 ------- 0 2.0 3.0 9 9
+ 0.408 2 3 cbr 1000 ------- 0 2.0 3.0 10 10
- 0.408 2 3 cbr 1000 ------- 0 2.0 3.0 10 10
+ 0.4088 2 3 cbr 1000 ------- 0 2.0 3.0 11 11
- 0.4088 2 3 cbr 1000 ------- 0 2.0 3.0 11 11
+ 0.4096 2 3 cbr 1000 ------- 0 2.0 3.0 12 12
- 0.4096 2 3 cbr 1000 ------- 0 2.0 3.0 12 12
+ 0.4104 2 3 cbr 1000 ------- 0 2.0 3.0 13 13
- 0.4104 2 3 cbr 1000 ------- 0 2.0 3.0 13 13
+ 0.4112 2 3 cbr 1000 ------- 0 2.0 3.0 14 14
- 0.4112 2 3 cbr 1000 ------- 0 2.0 3.0 14 14
+ 0.412 2 3 cbr 1000 ------- 0 2.0 3.0 15 15
- 0.412 2 3 cbr 1000 ------- 0 2.0 3.0 15 15
+ 0.4128 2 3 cbr 1000 ------- 0 2.0 3.0 16 16
- 0.4128 2 3 cbr 1000 ------- 0 2.0 3.0 16 16
+ 0.4136 2 3 cbr 1000 ------- 0 2.0 3.0 17 17
- 0.4136 2 3 cbr 1000 ------- 0 2.0 3.0 17 17
+ 0.4144 2 3 cbr 1000 ------- 0 2.0 3.0 18 18
- 0.4144 2 3 cbr 1000 ------- 0 2.0 3.0 18 18
+ 0.4152 2 3 cbr 1000 ------- 0 2.0 3.0 19 19
- 0.4152 2 3 cbr 1000 ------- 0 2.0 3.0 19 19
+ 0.416 2 3 cbr 1000 ------- 0 2.0 3.0 20 20
- 0.416 2 3 cbr 1000 ------- 0 2.0 3.0 20 20
+ 0.4168 2 3 cbr 1000 ------- 0 2.0 3.0 21 21
- 0.4168 2 3 cbr 1000 ------- 0 2.0 3.0 21 21
+ 0.4176 2 3 cbr 1000 ------- 0 2.0 3.0 22 22
- 0.4176 2 3 cbr 1000 ------- 0 2.0 3.0 22 22
+ 0.4184 2 3 cbr 1000 ------- 0 2.0 3.0 23 23
- 0.4184 2 3 cbr 1000 ------- 0 2.0 3.0 23 23
+ 0.4192 2 3 cbr 1000 ------- 0 2.0 3.0 24 24
- 0.4192 2 3 cbr 1000 ------- 0 2.0 3.0 24 24
+ 0.42 2 3 cbr 1000 ------- 0 2.0 3.0 25 25
- 0.42 2 3 cbr 1000 ------- 0 2.0 3.0 25 25
r 0.4208 2 3 cbr 1000 ------- 0 2.0 3.0 0 0
+ 0.4208 2 3 cbr 1000 ------- 0 2.0 3.0 26 26
- 0.4208 2 3 cbr 1000 ------- 0 2.0 3.0 26 26
r 0.4216 2 3 cbr 1000 ------- 0 2.0 3.0 1 1
+ 0.4216 2 3 cbr 1000 ------- 0 2.0 3.0 27 27
- 0.4216 2 3 cbr 1000 ------- 0 2.0 3.0 27 27
r 0.4224 2 3 cbr 1000 ------- 0 2.0 3.0 2 2
+ 0.4224 2 3 cbr 1000 ------- 0 2.0 3.0 28 28
- 0.4224 2 3 cbr 1000 ------- 0 2.0 3.0 28 28
r 0.4232 2 3 cbr 1000 ------- 0 2.0 3.0 3 3
+ 0.4232 2 3 cbr 1000 ------- 0 2.0 3.0 29 29
- 0.4232 2 3 cbr 1000 ------- 0 2.0 3.0 29 29
r 0.424 2 3 cbr 1000 ------- 0 2.0 3.0 4 4
+ 0.424 2 3 cbr 1000 ------- 0 2.0 3.0 30 30
- 0.424 2 3 cbr 1000 ------- 0 2.0 3.0 30 30
r 0.4248 2 3 cbr 1000 ------- 0 2.0 3.0 5 5
+ 0.4248 2 3 cbr 1000 ------- 0 2.0 3.0 31 31
- 0.4248 2 3 cbr 1000 ------- 0 2.0 3.0 31 31
r 0.4256 2 3 cbr 1000 ------- 0 2.0 3.0 6 6
+ 0.4256 2 3 cbr 1000 ------- 0 2.0 3.0 32 32
- 0.4256 2 3 cbr 1000 ------- 0 2.0 3.0 32 32
r 0.4264 2 3 cbr 1000 ------- 0 2.0 3.0 7 7
+ 0.4264 2 3 cbr 1000 ------- 0 2.0 3.0 33 33
- 0.4264 2 3 cbr 1000 ------- 0 2.0 3.0 33 33
r 0.4272 2 3 cbr 1000 ------- 0 2.0 3.0 8 8
+ 0.4272 2 3 cbr 1000 ------- 0 2.0 3.0 34 34
- 0.4272 2 3 cbr 1000 ------- 0 2.0 3.0 34 34
r 0.428 2 3 cbr 1000 ------- 0 2.0 3.0 9 9
+ 0.428 2 3 cbr 1000 ------- 0 2.0 3.0 35 35
- 0.428 2 3 cbr 1000 ------- 0 2.0 3.0 35 35
r 0.4288 2 3 cbr 1000 ------- 0 2.0 3.0 10 10
+ 0.4288 2 3 cbr 1000 ------- 0 2.0 3.0 36 36
- 0.4288 2 3 cbr 1000 ------- 0 2.0 3.0 36 36
r 0.4296 2 3 cbr 1000 ------- 0 2.0 3.0 11 11
+ 0.4296 2 3 cbr 1000 ------- 0 2.0 3.0 37 37
- 0.4296 2 3 cbr 1000 ------- 0 2.0 3.0 37 37
r 0.4304 2 3 cbr 1000 ------- 0 2.0 3.0 12 12
+ 0.4304 2 3 cbr 1000 ------- 0 2.0 3.0 38 38
- 0.4304 2 3 cbr 1000 ------- 0 2.0 3.0 38 38
r 0.4312 2 3 cbr 1000 ------- 0 2.0 3.0 13 13
+ 0.4312 2 3 cbr 1000 ------- 0 2.0 3.0 39 39
- 0.4312 2 3 cbr 1000 ------- 0 2.0 3.0 39 39
r 0.432 2 3 cbr 1000 ------- 0 2.0 3.0 14 14
+ 0.432 2 3 cbr 1000 ------- 0 2.0 3.0 40 40
- 0.432 2 3 cbr 1000 ------- 0 2.0 3.0 40 40
r 0.4328 2 3 cbr 1000 ------- 0 2.0 3.0 15 15
+ 0.4328 2 3 cbr 1000 ------- 0 2.0 3.0 41 41
- 0.4328 2 3 cbr 1000 ------- 0 2.0 3.0 41 41
r 0.4336 2 3 cbr 1000 ------- 0 2.0 3.0 16 16
+ 0.4336 2 3 cbr 1000 ------- 0 2.0 3.0 42 42
- 0.4336 2 3 cbr 1000 ------- 0 2.0 3.0 42 42
r 0.4344 2 3 cbr 1000 ------- 0 2.0 3.0 17 17
+ 0.4344 2 3 cbr 1000 ------- 0 2.0 3.0 43 43
- 0.4344 2 3 cbr 1000 ------- 0 2.0 3.0 43 43
r 0.4352 2 3 cbr 1000 ------- 0 2.0 3.0 18 18
+ 0.4352 2 3 cbr 1000 ------- 0 2.0 3.0 44 44
- 0.4352 2 3 cbr 1000 ------- 0 2.0 3.0 44 44
r 0.436 2 3 cbr 1000 ------- 0 2.0 3.0 19 19
+ 0.436 2 3 cbr 1000 ------- 0 2.0 3.0 45 45
- 0.436 2 3 cbr 1000 ------- 0 2.0 3.0 45 45
r 0.4368 2 3 cbr 1000 ------- 0 2.0 3.0 20 20
+ 0.4368 2 3 cbr 1000 ------- 0 2.0 3.0 46 46
- 0.4368 2 3 cbr 1000 ------- 0 2.0 3.0 46 46
r 0.4376 2 3 cbr 1000 ------- 0 2.0 3.0 21 21
+ 0.4376 2 3 cbr 1000 ------- 0 2.0 3.0 47 47
- 0.4376 2 3 cbr 1000 ------- 0 2.0 3.0 47 47
r 0.4384 2 3 cbr 1000 ------- 0 2.0 3.0 22 22
+ 0.4384 2 3 cbr 1000 ------- 0 2.0 3.0 48 48
- 0.4384 2 3 cbr 1000 ------- 0 2.0 3.0 48 48
r 0.4392 2 3 cbr 1000 ------- 0 2.0 3.0 23 23
+ 0.4392 2 3 cbr 1000 ------- 0 2.0 3.0 49 49
- 0.4392 2 3 cbr 1000 ------- 0 2.0 3.0 49 49
r 0.44 2 3 cbr 1000 ------- 0 2.0 3.0 24 24
+ 0.44 2 3 cbr 1000 ------- 0 2.0 3.0 50 50
- 0.44 2 3 cbr 1000 ------- 0 2.0 3.0 50 50
r 0.4408 2 3 cbr 1000 ------- 0 2.0 3.0 25 25
+ 0.4408 2 3 cbr 1000 ------- 0 2.0 3.0 51 51
- 0.4408 2 3 cbr 1000 ------- 0 2.0 3.0 51 51
r 0.4416 2 3 cbr 1000 ------- 0 2.0 3.0 26 26
+ 0.4416 2 3 cbr 1000 ------- 0 2.0 3.0 52 52
- 0.4416 2 3 cbr 1000 ------- 0 2.0 3.0 52 52
r 0.4424 2 3 cbr 1000 ------- 0 2.0 3.0 27 27
+ 0.4424 2 3 cbr 1000 ------- 0 2.0 3.0 53 53
- 0.4424 2 3 cbr 1000 ------- 0 2.0 3.0 53 53
r 0.4432 2 3 cbr 1000 ------- 0 2.0 3.0 28 28
+ 0.4432 2 3 cbr 1000 ------- 0 2.0 3.0 54 54
- 0.4432 2 3 cbr 1000 ------- 0 2.0 3.0 54 54
r 0.444 2 3 cbr 1000 ------- 0 2.0 3.0 29 29
+ 0.444 2 3 cbr 1000 ------- 0 2.0 3.0 55 55
- 0.444 2 3 cbr 1000 ------- 0 2.0 3.0 55 55
r 0.4448 2 3 cbr 1000 ------- 0 2.0 3.0 30 30
+ 0.4448 2 3 cbr 1000 ------- 0 2.0 3.0 56 56
- 0.4448 2 3 cbr 1000 ------- 0 2.0 3.0 56 56
r 0.4456 2 3 cbr 1000 ------- 0 2.0 3.0 31 31
+ 0.4456 2 3 cbr 1000 ------- 0 2.0 3.0 57 57
- 0.4456 2 3 cbr 1000 ------- 0 2.0 3.0 57 57
r 0.4464 2 3 cbr 1000 ------- 0 2.0 3.0 32 32
+ 0.4464 2 3 cbr 1000 ------- 0 2.0 3.0 58 58
- 0.4464 2 3 cbr 1000 ------- 0 2.0 3.0 58 58
r 0.4472 2 3 cbr 1000 ------- 0 2.0 3.0 33 33
+ 0.4472 2 3 cbr 1000 ------- 0 2.0 3.0 59 59
- 0.4472 2 3 cbr 1000 ------- 0 2.0 3.0 59 59
r 0.448 2 3 cbr 1000 ------- 0 2.0 3.0 34 34
+ 0.448 2 3 cbr 1000 ------- 0 2.0 3.0 60 60
- 0.448 2 3 cbr 1000 ------- 0 2.0 3.0 60 60
r 0.4488 2 3 cbr 1000 ------- 0 2.0 3.0 35 35
+ 0.4488 2 3 cbr 1000 ------- 0 2.0 3.0 61 61
- 0.4488 2 3 cbr 1000 ------- 0 2.0 3.0 61 61
r 0.4496 2 3 cbr 1000 ------- 0 2.0 3.0 36 36
+ 0.4496 2 3 cbr 1000 ------- 0 2.0 3.0 62 62
- 0.4496 2 3 cbr 1000 ------- 0 2.0 3.0 62 62
r 0.4504 2 3 cbr 1000 ------- 0 2.0 3.0 37 37
+ 0.4504 2 3 cbr 1000 ------- 0 2.0 3.0 63 63
- 0.4504 2 3 cbr 1000 ------- 0 2.0 3.0 63 63
r 0.4512 2 3 cbr 1000 ------- 0 2.0 3.0 38 38
+ 0.4512 2 3 cbr 1000 ------- 0 2.0 3.0 64 64
- 0.4512 2 3 cbr 1000 ------- 0 2.0 3.0 64 64
r 0.452 2 3 cbr 1000 ------- 0 2.0 3.0 39 39
+ 0.452 2 3 cbr 1000 ------- 0 2.0 3.0 65 65
- 0.452 2 3 cbr 1000 ------- 0 2.0 3.0 65 65
r 0.4528 2 3 cbr 1000 ------- 0 2.0 3.0 40 40
+ 0.4528 2 3 cbr 1000 ------- 0 2.0 3.0 66 66
- 0.4528 2 3 cbr 1000 ------- 0 2.0 3.0 66 66
r 0.4536 2 3 cbr 1000 ------- 0 2.0 3.0 41 41
+ 0.4536 2 3 cbr 1000 ------- 0 2.0 3.0 67 67
- 0.4536 2 3 cbr 1000 ------- 0 2.0 3.0 67 67
r 0.4544 2 3 cbr 1000 ------- 0 2.0 3.0 42 42
+ 0.4544 2 3 cbr 1000 ------- 0 2.0 3.0 68 68
- 0.4544 2 3 cbr 1000 ------- 0 2.0 3.0 68 68
r 0.4552 2 3 cbr 1000 ------- 0 2.0 3.0 43 43
+ 0.4552 2 3 cbr 1000 ------- 0 2.0 3.0 69 69
- 0.4552 2 3 cbr 1000 ------- 0 2.0 3.0 69 69
r 0.456 2 3 cbr 1000 ------- 0 2.0 3.0 44 44
+ 0.456 2 3 cbr 1000 ------- 0 2.0 3.0 70 70
- 0.456 2 3 cbr 1000 ------- 0 2.0 3.0 70 70
r 0.4568 2 3 cbr 1000 ------- 0 2.0 3.0 45 45
+ 0.4568 2 3 cbr 1000 ------- 0 2.0 3.0 71 71
- 0.4568 2 3 cbr 1000 ------- 0 2.0 3.0 71 71
r 0.4576 2 3 cbr 1000 ------- 0 2.0 3.0 46 46
+ 0.4576 2 3 cbr 1000 ------- 0 2.0 3.0 72 72
- 0.4576 2 3 cbr 1000 ------- 0 2.0 3.0 72 72
r 0.4584 2 3 cbr 1000 ------- 0 2.0 3.0 47 47
+ 0.4584 2 3 cbr 1000 ------- 0 2.0 3.0 73 73
- 0.4584 2 3 cbr 1000 ------- 0 2.0 3.0 73 73
r 0.4592 2 3 cbr 1000 ------- 0 2.0 3.0 48 48
+ 0.4592 2 3 cbr 1000 ------- 0 2.0 3.0 74 74
- 0.4592 2 3 cbr 1000 ------- 0 2.0 3.0 74 74
r 0.46 2 3 cbr 1000 ------- 0 2.0 3.0 49 49
+ 0.46 2 3 cbr 1000 ------- 0 2.0 3.0 75 75
- 0.46 2 3 cbr 1000 ------- 0 2.0 3.0 75 75
r 0.4608 2 3 cbr 1000 ------- 0 2.0 3.0 50 50
+ 0.4608 2 3 cbr 1000 ------- 0 2.0 3.0 76 76
- 0.4608 2 3 cbr 1000 ------- 0 2.0 3.0 76 76
r 0.4616 2 3 cbr 1000 ------- 0 2.0 3.0 51 51
+ 0.4616 2 3 cbr 1000 ------- 0 2.0 3.0 77 77
- 0.4616 2 3 cbr 1000 ------- 0 2.0 3.0 77 77
r 0.4624 2 3 cbr 1000 ------- 0 2.0 3.0 52 52
+ 0.4624 2 3 cbr 1000 ------- 0 2.0 3.0 78 78
- 0.4624 2 3 cbr 1000 ------- 0 2.0 3.0 78 78
r 0.4632 2 3 cbr 1000 ------- 0 2.0 3.0 53 53
+ 0.4632 2 3 cbr 1000 ------- 0 2.0 3.0 79 79
- 0.4632 2 3 cbr 1000 ------- 0 2.0 3.0 79 79
r 0.464 2 3 cbr 1000 ------- 0 2.0 3.0 54 54
+ 0.464 2 3 cbr 1000 ------- 0 2.0 3.0 80 80
- 0.464 2 3 cbr 1000 ------- 0 2.0 3.0 80 80
r 0.4648 2 3 cbr 1000 ------- 0 2.0 3.0 55 55
+ 0.4648 2 3 cbr 1000 ------- 0 2.0 3.0 81 81
- 0.4648 2 3 cbr 1000 ------- 0 2.0 3.0 81 81
r 0.4656 2 3 cbr 1000 ------- 0 2.0 3.0 56 56
+ 0.4656 2 3 cbr 1000 ------- 0 2.0 3.0 82 82
- 0.4656 2 3 cbr 1000 ------- 0 2.0 3.0 82 82
r 0.4664 2 3 cbr 1000 ------- 0 2.0 3.0 57 57
+ 0.4664 2 3 cbr 1000 ------- 0 2.0 3.0 83 83
- 0.4664 2 3 cbr 1000 ------- 0 2.0 3.0 83 83
r 0.4672 2 3 cbr 1000 ------- 0 2.0 3.0 58 58
+ 0.4672 2 3 cbr 1000 ------- 0 2.0 3.0 84 84
- 0.4672 2 3 cbr 1000 ------- 0 2.0 3.0 84 84
r 0.468 2 3 cbr 1000 ------- 0 2.0 3.0 59 59
+ 0.468 2 3 cbr 1000 ------- 0 2.0 3.0 85 85
- 0.468 2 3 cbr 1000 ------- 0 2.0 3.0 85 85
r 0.4688 2 3 cbr 1000 ------- 0 2.0 3.0 60 60
+ 0.4688 2 3 cbr 1000 ------- 0 2.0 3.0 86 86
- 0.4688 2 3 cbr 1000 ------- 0 2.0 3.0 86 86
r 0.4696 2 3 cbr 1000 ------- 0 2.0 3.0 61 61
+ 0.4696 2 3 cbr 1000 ------- 0 2.0 3.0 87 87
- 0.4696 2 3 cbr 1000 ------- 0 2.0 3.0 87 87
r 0.4704 2 3 cbr 1000 ------- 0 2.0 3.0 62 62
+ 0.4704 2 3 cbr 1000 ------- 0 2.0 3.0 88 88
- 0.4704 2 3 cbr 1000 ------- 0 2.0 3.0 88 88
r 0.4712 2 3 cbr 1000 ------- 0 2.0 3.0 63 63
+ 0.4712 2 3 cbr 1000 ------- 0 2.0 3.0 89 89
- 0.4712 2 3 cbr 1000 ------- 0 2.0 3.0 89 89
r 0.472 2 3 cbr 1000 ------- 0 2.0 3.0 64 64
+ 0.472 2 3 cbr 1000 ------- 0 2.0 3.0 90 90
- 0.472 2 3 cbr 1000 ------- 0 2.0 3.0 90 90
r 0.4728 2 3 cbr 1000 ------- 0 2.0 3.0 65 65
+ 0.4728 2 3 cbr 1000 ------- 0 2.0 3.0 91 91
- 0.4728 2 3 cbr 1000 ------- 0 2.0 3.0 91 91
r 0.4736 2 3 cbr 1000 ------- 0 2.0 3.0 66 66
+ 0.4736 2 3 cbr 1000 ------- 0 2.0 3.0 92 92
- 0.4736 2 3 cbr 1000 ------- 0 2.0 3.0 92 92
r 0.4744 2 3 cbr 1000 ------- 0 2.0 3.0 67 67
+ 0.4744 2 3 cbr 1000 ------- 0 2.0 3.0 93 93
- 0.4744 2 3 cbr 1000 ------- 0 2.0 3.0 93 93
r 0.4752 2 3 cbr 1000 ------- 0 2.0 3.0 68 68
+ 0.4752 2 3 cbr 1000 ------- 0 2.0 3.0 94 94
- 0.4752 2 3 cbr 1000 ------- 0 2.0 3.0 94 94
r 0.476 2 3 cbr 1000 ------- 0 2.0 3.0 69 69
+ 0.476 2 3 cbr 1000 ------- 0 2.0 3.0 95 95
- 0.476 2 3 cbr 1000 ------- 0 2.0 3.0 95 95
r 0.4768 2 3 cbr 1000 ------- 0 2.0 3.0 70 70
+ 0.4768 2 3 cbr 1000 ------- 0 2.0 3.0 96 96
- 0.4768 2 3 cbr 1000 ------- 0 2.0 3.0 96 96
r 0.4776 2 3 cbr 1000 ------- 0 2.0 3.0 71 71
+ 0.4776 2 3 cbr 1000 ------- 0 2.0 3.0 97 97
- 0.4776 2 3 cbr 1000 ------- 0 2.0 3.0 97 97
r 0.4784 2 3 cbr 1000 ------- 0 2.0 3.0 72 72
+ 0.4784 2 3 cbr 1000 ------- 0 2.0 3.0 98 98
- 0.4784 2 3 cbr 1000 ------- 0 2.0 3.0 98 98
r 0.4792 2 3 cbr 1000 ------- 0 2.0 3.0 73 73
+ 0.4792 2 3 cbr 1000 ------- 0 2.0 3.0 99 99
- 0.4792 2 3 cbr 1000 ------- 0 2.0 3.0 99 99
r 0.48 2 3 cbr 1000 ------- 0 2.0 3.0 74 74
+ 0.48 2 3 cbr 1000 ------- 0 2.0 3.0 100 100
- 0.48 2 3 cbr 1000 ------- 0 2.0 3.0 100 100
r 0.4808 2 3 cbr 1000 ------- 0 2.0 3.0 75 75
+ 0.4808 2 3 cbr 1000 ------- 0 2.0 3.0 101 101
- 0.4808 2 3 cbr 1000 ------- 0 2.0 3.0 101 101
r 0.4816 2 3 cbr 1000 ------- 0 2.0 3.0 76 76
+ 0.4816 2 3 cbr 1000 ------- 0 2.0 3.0 102 102
- 0.4816 2 3 cbr 1000 ------- 0 2.0 3.0 102 102
r 0.4824 2 3 cbr 1000 ------- 0 2.0 3.0 77 77
+ 0.4824 2 3 cbr 1000 ------- 0 2.0 3.0 103 103
- 0.4824 2 3 cbr 1000 ------- 0 2.0 3.0 103 103
r 0.4832 2 3 cbr 1000 ------- 0 2.0 3.0 78 78
+ 0.4832 2 3 cbr 1000 ------- 0 2.0 3.0 104 104
- 0.4832 2 3 cbr 1000 ------- 0 2.0 3.0 104 104
r 0.484 2 3 cbr 1000 ------- 0 2.0 3.0 79 79
+ 0.484 2 3 cbr 1000 ------- 0 2.0 3.0 105 105
- 0.484 2 3 cbr 1000 ------- 0 2.0 3.0 105 105
r 0.4848 2 3 cbr 1000 ------- 0 2.0 3.0 80 80
+ 0.4848 2 3 cbr 1000 ------- 0 2.0 3.0 106 106
- 0.4848 2 3 cbr 1000 ------- 0 2.0 3.0 106 106
r 0.4856 2 3 cbr 1000 ------- 0 2.0 3.0 81 81
+ 0.4856 2 3 cbr 1000 ------- 0 2.0 3.0 107 107
- 0.4856 2 3 cbr 1000 ------- 0 2.0 3.0 107 107
r 0.4864 2 3 cbr 1000 ------- 0 2.0 3.0 82 82
+ 0.4864 2 3 cbr 1000 ------- 0 2.0 3.0 108 108
- 0.4864 2 3 cbr 1000 ------- 0 2.0 3.0 108 108
r 0.4872 2 3 cbr 1000 ------- 0 2.0 3.0 83 83
+ 0.4872 2 3 cbr 1000 ------- 0 2.0 3.0 109 109
- 0.4872 2 3 cbr 1000 ------- 0 2.0 3.0 109 109
r 0.488 2 3 cbr 1000 ------- 0 2.0 3.0 84 84
+ 0.488 2 3 cbr 1000 ------- 0 2.0 3.0 110 110
- 0.488 2 3 cbr 1000 ------- 0 2.0 3.0 110 110
r 0.4888 2 3 cbr 1000 ------- 0 2.0 3.0 85 85
+ 0.4888 2 3 cbr 1000 ------- 0 2.0 3.0 111 111
- 0.4888 2 3 cbr 1000 ------- 0 2.0 3.0 111 111
r 0.4896 2 3 cbr 1000 ------- 0 2.0 3.0 86 86
+ 0.4896 2 3 cbr 1000 ------- 0 2.0 3.0 112 112
- 0.4896 2 3 cbr 1000 ------- 0 2.0 3.0 112 112
r 0.4904 2 3 cbr 1000 ------- 0 2.0 3.0 87 87
+ 0.4904 2 3 cbr 1000 ------- 0 2.0 3.0 113 113
- 0.4904 2 3 cbr 1000 ------- 0 2.0 3.0 113 113
r 0.4912 2 3 cbr 1000 ------- 0 2.0 3.0 88 88
+ 0.4912 2 3 cbr 1000 ------- 0 2.0 3.0 114 114
- 0.4912 2 3 cbr 1000 ------- 0 2.0 3.0 114 114
r 0.492 2 3 cbr 1000 ------- 0 2.0 3.0 89 89
+ 0.492 2 3 cbr 1000 ------- 0 2.0 3.0 115 115
- 0.492 2 3 cbr 1000 ------- 0 2.0 3.0 115 115
r 0.4928 2 3 cbr 1000 ------- 0 2.0 3.0 90 90
+ 0.4928 2 3 cbr 1000 ------- 0 2.0 3.0 116 116
- 0.4928 2 3 cbr 1000 ------- 0 2.0 3.0 116 116
r 0.4936 2 3 cbr 1000 ------- 0 2.0 3.0 91 91
+ 0.4936 2 3 cbr 1000 ------- 0 2.0 3.0 117 117
- 0.4936 2 3 cbr 1000 ------- 0 2.0 3.0 117 117
r 0.4944 2 3 cbr 1000 ------- 0 2.0 3.0 92 92
+ 0.4944 2 3 cbr 1000 ------- 0 2.0 3.0 118 118
- 0.4944 2 3 cbr 1000 ------- 0 2.0 3.0 118 118
r 0.4952 2 3 cbr 1000 ------- 0 2.0 3.0 93 93
+ 0.4952 2 3 cbr 1000 ------- 0 2.0 3.0 119 119
- 0.4952 2 3 cbr 1000 ------- 0 2.0 3.0 119 119
r 0.496 2 3 cbr 1000 ------- 0 2.0 3.0 94 94
+ 0.496 2 3 cbr 1000 ------- 0 2.0 3.0 120 120
- 0.496 2 3 cbr 1000 ------- 0 2.0 3.0 120 120
r 0.4968 2 3 cbr 1000 ------- 0 2.0 3.0 95 95
+ 0.4968 2 3 cbr 1000 ------- 0 2.0 3.0 121 121
- 0.4968 2 3 cbr 1000 ------- 0 2.0 3.0 121 121
r 0.4976 2 3 cbr 1000 ------- 0 2.0 3.0 96 96
+ 0.4976 2 3 cbr 1000 ------- 0 2.0 3.0 122 122
- 0.4976 2 3 cbr 1000 ------- 0 2.0 3.0 122 122
r 0.4984 2 3 cbr 1000 ------- 0 2.0 3.0 97 97
+ 0.4984 2 3 cbr 1000 ------- 0 2.0 3.0 123 123
- 0.4984 2 3 cbr 1000 ------- 0 2.0 3.0 123 123
r 0.4992 2 3 cbr 1000 ------- 0 2.0 3.0 98 98
+ 0.4992 2 3 cbr 1000 ------- 0 2.0 3.0 124 124
- 0.4992 2 3 cbr 1000 ------- 0 2.0 3.0 124 124
+ 0.5 0 2 tcp 40 ------- 1 0.0 4.0 0 125
- 0.5 0 2 tcp 40 ------- 1 0.0 4.0 0 125
r 0.5 2 3 cbr 1000 ------- 0 2.0 3.0 99 99
+ 0.5 2 3 cbr 1000 ------- 0 2.0 3.0 125 126
- 0.5 2 3 cbr 1000 ------- 0 2.0 3.0 125 126
r 0.5008 2 3 cbr 1000 ------- 0 2.0 3.0 100 100
+ 0.5008 2 3 cbr 1000 ------- 0 2.0 3.0 126 127
- 0.5008 2 3 cbr 1000 ------- 0 2.0 3.0 126 127
r 0.5016 2 3 cbr 1000 ------- 0 2.0 3.0 101 101
+ 0.5016 2 3 cbr 1000 ------- 0 2.0 3.0 127 128
- 0.5016 2 3 cbr 1000 ------- 0 2.0 3.0 127 128
r 0.5024 2 3 cbr 1000 ------- 0 2.0 3.0 102 102
+ 0.5024 2 3 cbr 1000 ------- 0 2.0 3.0 128 129
- 0.5024 2 3 cbr 1000 ------- 0 2.0 3.0 128 129
r 0.5032 2 3 cbr 1000 ------- 0 2.0 3.0 103 103
+ 0.5032 2 3 cbr 1000 ------- 0 2.0 3.0 129 130
- 0.5032 2 3 cbr 1000 ------- 0 2.0 3.0 129 130
r 0.504 2 3 cbr 1000 ------- 0 2.0 3.0 104 104
+ 0.504 2 3 cbr 1000 ------- 0 2.0 3.0 130 131
- 0.504 2 3 cbr 1000 ------- 0 2.0 3.0 130 131
r 0.5048 2 3 cbr 1000 ------- 0 2.0 3.0 105 105
+ 0.5048 2 3 cbr 1000 ------- 0 2.0 3.0 131 132
- 0.5048 2 3 cbr 1000 ------- 0 2.0 3.0 131 132
r 0.5056 2 3 cbr 1000 ------- 0 2.0 3.0 106 106
+ 0.5056 2 3 cbr 1000 ------- 0 2.0 3.0 132 133
- 0.5056 2 3 cbr 1000 ------- 0 2.0 3.0 132 133
r 0.5064 2 3 cbr 1000 ------- 0 2.0 3.0 107 107
+ 0.5064 2 3 cbr 1000 ------- 0 2.0 3.0 133 134
- 0.5064 2 3 cbr 1000 ------- 0 2.0 3.0 133 134
r 0.5072 2 3 cbr 1000 ------- 0 2.0 3.0 108 108
+ 0.5072 2 3 cbr 1000 ------- 0 2.0 3.0 134 135
- 0.5072 2 3 cbr 1000 ------- 0 2.0 3.0 134 135
r 0.508 2 3 cbr 1000 ------- 0 2.0 3.0 109 109
+ 0.508 2 3 cbr 1000 ------- 0 2.0 3.0 135 136
- 0.508 2 3 cbr 1000 ------- 0 2.0 3.0 135 136
r 0.5088 2 3 cbr 1000 ------- 0 2.0 3.0 110 110
+ 0.5088 2 3 cbr 1000 ------- 0 2.0 3.0 136 137
- 0.5088 2 3 cbr 1000 ------- 0 2.0 3.0 136 137
r 0.5096 2 3 cbr 1000 ------- 0 2.0 3.0 111 111
+ 0.5096 2 3 cbr 1000 ------- 0 2.0 3.0 137 138
- 0.5096 2 3 cbr 1000 ------- 0 2.0 3.0 137 138
r 0.510032 0 2 tcp 40 ------- 1 0.0 4.0 0 125
+ 0.510032 2 3 tcp 40 ------- 1 0.0 4.0 0 125
r 0.5104 2 3 cbr 1000 ------- 0 2.0 3.0 112 112
- 0.5104 2 3 tcp 40 ------- 1 0.0 4.0 0 125
+ 0.5104 2 3 cbr 1000 ------- 0 2.0 3.0 138 139
- 0.510432 2 3 cbr 1000 ------- 0 2.0 3.0 138 139
r 0.5112 2 3 cbr 1000 ------- 0 2.0 3.0 113 113
+ 0.5112 2 3 cbr 1000 ------- 0 2.0 3.0 139 140
- 0.511232 2 3 cbr 1000 ------- 0 2.0 3.0 139 140
r 0.512 2 3 cbr 1000 ------- 0 2.0 3.0 114 114
+ 0.512 2 3 cbr 1000 ------- 0 2.0 3.0 140 141
- 0.512032 2 3 cbr 1000 ------- 0 2.0 3.0 140 141
r 0.5128 2 3 cbr 1000 ------- 0 2.0 3.0 115 115
+ 0.5128 2 3 cbr 1000 ------- 0 2.0 3.0 141 142
- 0.512832 2 3 cbr 1000 ------- 0 2.0 3.0 141 142
r 0.5136 2 3 cbr 1000 ------- 0 2.0 3.0 116 116
+ 0.5136 2 3 cbr 1000 ------- 0 2.0 3.0 142 143
- 0.513632 2 3 cbr 1000 ------- 0 2.0 3.0 142 143
r 0.5144 2 3 cbr 1000 ------- 0 2.0 3.0 117 117
+ 0.5144 2 3 cbr 1000 ------- 0 2.0 3.0 143 144
- 0.514432 2 3 cbr 1000 ------- 0 2.0 3.0 143 144
r 0.5152 2 3 cbr 1000 ------- 0 2.0 3.0 118 118
+ 0.5152 2 3 cbr 1000 ------- 0 2.0 3.0 144 145
- 0.515232 2 3 cbr 1000 ------- 0 2.0 3.0 144 145
r 0.516 2 3 cbr 1000 ------- 0 2.0 3.0 119 119
+ 0.516 2 3 cbr 1000 ------- 0 2.0 3.0 145 146
- 0.516032 2 3 cbr 1000 ------- 0 2.0 3.0 145 146
r 0.5168 2 3 cbr 1000 ------- 0 2.0 3.0 120 120
+ 0.5168 2 3 cbr 1000 ------- 0 2.0 3.0 146 147
- 0.516832 2 3 cbr 1000 ------- 0 2.0 3.0 146 147
r 0.5176 2 3 cbr 1000 ------- 0 2.0 3.0 121 121
+ 0.5176 2 3 cbr 1000 ------- 0 2.0 3.0 147 148
- 0.517632 2 3 cbr 1000 ------- 0 2.0 3.0 147 148
r 0.5184 2 3 cbr 1000 ------- 0 2.0 3.0 122 122
+ 0.5184 2 3 cbr 1000 ------- 0 2.0 3.0 148 149
- 0.518432 2 3 cbr 1000 ------- 0 2.0 3.0 148 149
r 0.5192 2 3 cbr 1000 ------- 0 2.0 3.0 123 123
+ 0.5192 2 3 cbr 1000 ------- 0 2.0 3.0 149 150
- 0.519232 2 3 cbr 1000 ------- 0 2.0 3.0 149 150
r 0.52 2 3 cbr 1000 ------- 0 2.0 3.0 124 124
+ 0.52 2 3 cbr 1000 ------- 0 2.0 3.0 150 151
- 0.520032 2 3 cbr 1000 ------- 0 2.0 3.0 150 151
r 0.5208 2 3 cbr 1000 ------- 0 2.0 3.0 125 126
+ 0.5208 2 3 cbr 1000 ------- 0 2.0 3.0 151 152
- 0.520832 2 3 cbr 1000 ------- 0 2.0 3.0 151 152
r 0.5216 2 3 cbr 1000 ------- 0 2.0 3.0 126 127
+ 0.5216 2 3 cbr 1000 ------- 0 2.0 3.0 152 153
- 0.521632 2 3 cbr 1000 ------- 0 2.0 3.0 152 153
r 0.5224 2 3 cbr 1000 ------- 0 2.0 3.0 127 128
+ 0.5224 2 3 cbr 1000 ------- 0 2.0 3.0 153 154
- 0.522432 2 3 cbr 1000 ------- 0 2.0 3.0 153 154
r 0.5232 2 3 cbr 1000 ------- 0 2.0 3.0 128 129
+ 0.5232 2 3 cbr 1000 ------- 0 2.0 3.0 154 155
- 0.523232 2 3 cbr 1000 ------- 0 2.0 3.0 154 155
r 0.524 2 3 cbr 1000 ------- 0 2.0 3.0 129 130
+ 0.524 2 3 cbr 1000 ------- 0 2.0 3.0 155 156
- 0.524032 2 3 cbr 1000 ------- 0 2.0 3.0 155 156
r 0.5248 2 3 cbr 1000 ------- 0 2.0 3.0 130 131
+ 0.5248 2 3 cbr 1000 ------- 0 2.0 3.0 156 157
- 0.524832 2 3 cbr 1000 ------- 0 2.0 3.0 156 157
r 0.5256 2 3 cbr 1000 ------- 0 2.0 3.0 131 132
+ 0.5256 2 3 cbr 1000 ------- 0 2.0 3.0 157 158
- 0.525632 2 3 cbr 1000 ------- 0 2.0 3.0 157 158
r 0.5264 2 3 cbr 1000 ------- 0 2.0 3.0 132 133
+ 0.5264 2 3 cbr 1000 ------- 0 2.0 3.0 158 159
- 0.526432 2 3 cbr 1000 ------- 0 2.0 3.0 158 159
r 0.5272 2 3 cbr 1000 ------- 0 2.0 3.0 133 134
+ 0.5272 2 3 cbr 1000 ------- 0 2.0 3.0 159 160
- 0.527232 2 3 cbr 1000 ------- 0 2.0 3.0 159 160
r 0.528 2 3 cbr 1000 ------- 0 2.0 3.0 134 135
+ 0.528 2 3 cbr 1000 ------- 0 2.0 3.0 160 161
- 0.528032 2 3 cbr 1000 ------- 0 2.0 3.0 160 161
r 0.5288 2 3 cbr 1000 ------- 0 2.0 3.0 135 136
+ 0.5288 2 3 cbr 1000 ------- 0 2.0 3.0 161 162
- 0.528832 2 3 cbr 1000 ------- 0 2.0 3.0 161 162
r 0.5296 2 3 cbr 1000 ------- 0 2.0 3.0 136 137
+ 0.5296 2 3 cbr 1000 ------- 0 2.0 3.0 162 163
- 0.529632 2 3 cbr 1000 ------- 0 2.0 3.0 162 163
r 0.5304 2 3 cbr 1000 ------- 0 2.0 3.0 137 138
+ 0.5304 2 3 cbr 1000 ------- 0 2.0 3.0 163 164
r 0.530432 2 3 tcp 40 ------- 1 0.0 4.0 0 125
+ 0.530432 3 4 tcp 40 ------- 1 0.0 4.0 0 125
- 0.530432 3 4 tcp 40 ------- 1 0.0 4.0 0 125
- 0.530432 2 3 cbr 1000 ------- 0 2.0 3.0 163 164
+ 0.5312 2 3 cbr 1000 ------- 0 2.0 3.0 164 165
r 0.531232 2 3 cbr 1000 ------- 0 2.0 3.0 138 139
- 0.531232 2 3 cbr 1000 ------- 0 2.0 3.0 164 165
+ 0.532 2 3 cbr 1000 ------- 0 2.0 3.0 165 166
r 0.532032 2 3 cbr 1000 ------- 0 2.0 3.0 139 140
- 0.532032 2 3 cbr 1000 ------- 0 2.0 3.0 165 166
+ 0.5328 2 3 cbr 1000 ------- 0 2.0 3.0 166 167
r 0.532832 2 3 cbr 1000 ------- 0 2.0 3.0 140 141
- 0.532832 2 3 cbr 1000 ------- 0 2.0 3.0 166 167
+ 0.5336 2 3 cbr 1000 ------- 0 2.0 3.0 167 168
r 0.533632 2 3 cbr 1000 ------- 0 2.0 3.0 141 142
- 0.533632 2 3 cbr 1000 ------- 0 2.0 3.0 167 168
+ 0.5344 2 3 cbr 1000 ------- 0 2.0 3.0 168 169
r 0.534432 2 3 cbr 1000 ------- 0 2.0 3.0 142 143
- 0.534432 2 3 cbr 1000 ------- 0 2.0 3.0 168 169
+ 0.5352 2 3 cbr 1000 ------- 0 2.0 3.0 169 170
r 0.535232 2 3 cbr 1000 ------- 0 2.0 3.0 143 144
- 0.535232 2 3 cbr 1000 ------- 0 2.0 3.0 169 170
+ 0.536 2 3 cbr 1000 ------- 0 2.0 3.0 170 171
r 0.536032 2 3 cbr 1000 ------- 0 2.0 3.0 144 145
- 0.536032 2 3 cbr 1000 ------- 0 2.0 3.0 170 171
+ 0.5368 2 3 cbr 1000 ------- 0 2.0 3.0 171 172
r 0.536832 2 3 cbr 1000 ------- 0 2.0 3.0 145 146
- 0.536832 2 3 cbr 1000 ------- 0 2.0 3.0 171 172
+ 0.5376 2 3 cbr 1000 ------- 0 2.0 3.0 172 173
r 0.537632 2 3 cbr 1000 ------- 0 2.0 3.0 146 147
- 0.537632 2 3 cbr 1000 ------- 0 2.0 3.0 172 173
+ 0.5384 2 3 cbr 1000 ------- 0 2.0 3.0 173 174
r 0.538432 2 3 cbr 1000 ------- 0 2.0 3.0 147 148
- 0.538432 2 3 cbr 1000 ------- 0 2.0 3.0 173 174
+ 0.5392 2 3 cbr 1000 ------- 0 2.0 3.0 174 175
r 0.539232 2 3 cbr 1000 ------- 0 2.0 3.0 148 149
- 0.539232 2 3 cbr 1000 ------- 0 2.0 3.0 174 175
+ 0.54 2 3 cbr 1000 ------- 0 2.0 3.0 175 176
r 0.540032 2 3 cbr 1000 ------- 0 2.0 3.0 149 150
- 0.540032 2 3 cbr 1000 ------- 0 2.0 3.0 175 176
r 0.540464 3 4 tcp 40 ------- 1 0.0 4.0 0 125
+ 0.540464 4 3 ack 40 ------- 1 4.0 0.0 0 177
- 0.540464 4 3 ack 40 ------- 1 4.0 0.0 0 177
+ 0.5408 2 3 cbr 1000 ------- 0 2.0 3.0 176 178
r 0.540832 2 3 cbr 1000 ------- 0 2.0 3.0 150 151
- 0.540832 2 3 cbr 1000 ------- 0 2.0 3.0 176 178
+ 0.5416 2 3 cbr 1000 ------- 0 2.0 3.0 177 179
r 0.541632 2 3 cbr 1000 ------- 0 2.0 3.0 151 152
- 0.541632 2 3 cbr 1000 ------- 0 2.0 3.0 177 179
+ 0.5424 2 3 cbr 1000 ------- 0 2.0 3.0 178 180
r 0.542432 2 3 cbr 1000 ------- 0 2.0 3.0 152 153
- 0.542432 2 3 cbr 1000 ------- 0 2.0 3.0 178 180
+ 0.5432 2 3 cbr 1000 ------- 0 2.0 3.0 179 181
r 0.543232 2 3 cbr 1000 ------- 0 2.0 3.0 153 154
- 0.543232 2 3 cbr 1000 ------- 0 2.0 3.0 179 181
+ 0.544 2 3 cbr 1000 ------- 0 2.0 3.0 180 182
r 0.544032 2 3 cbr 1000 ------- 0 2.0 3.0 154 155
- 0.544032 2 3 cbr 1000 ------- 0 2.0 3.0 180 182
+ 0.5448 2 3 cbr 1000 ------- 0 2.0 3.0 181 183
r 0.544832 2 3 cbr 1000 ------- 0 2.0 3.0 155 156
- 0.544832 2 3 cbr 1000 ------- 0 2.0 3.0 181 183
+ 0.5456 2 3 cbr 1000 ------- 0 2.0 3.0 182 184
r 0.545632 2 3 cbr 1000 ------- 0 2.0 3.0 156 157
- 0.545632 2 3 cbr 1000 ------- 0 2.0 3.0 182 184
+ 0.5464 2 3 cbr 1000 ------- 0 2.0 3.0 183 185
r 0.546432 2 3 cbr 1000 ------- 0 2.0 3.0 157 158
- 0.546432 2 3 cbr 1000 ------- 0 2.0 3.0 183 185
+ 0.5472 2 3 cbr 1000 ------- 0 2.0 3.0 184 186
r 0.547232 2 3 cbr 1000 ------- 0 2.0 3.0 158 159
- 0.547232 2 3 cbr 1000 ------- 0 2.0 3.0 184 186
+ 0.548 2 3 cbr 1000 ------- 0 2.0 3.0 185 187
r 0.548032 2 3 cbr 1000 ------- 0 2.0 3.0 159 160
- 0.548032 2 3 cbr 1000 ------- 0 2.0 3.0 185 187
+ 0.5488 2 3 cbr 1000 ------- 0 2.0 3.0 186 188
r 0.548832 2 3 cbr 1000 ------- 0 2.0 3.0 160 161
- 0.548832 2 3 cbr 1000 ------- 0 2.0 3.0 186 188
+ 0.5496 2 3 cbr 1000 ------- 0 2.0 3.0 187 189
r 0.549632 2 3 cbr 1000 ------- 0 2.0 3.0 161 162
- 0.549632 2 3 cbr 1000 ------- 0 2.0 3.0 187 189
+ 0.5504 2 3 cbr 1000 ------- 0 2.0 3.0 188 190
r 0.550432 2 3 cbr 1000 ------- 0 2.0 3.0 162 163
- 0.550432 2 3 cbr 1000 ------- 0 2.0 3.0 188 190
r 0.550496 4 3 ack 40 ------- 1 4.0 0.0 0 177
+ 0.550496 3 2 ack 40 ------- 1 4.0 0.0 0 177
- 0.550496 3 2 ack 40 ------- 1 4.0 0.0 0 177
+ 0.5512 2 3 cbr 1000 ------- 0 2.0 3.0 189 191
r 0.551232 2 3 cbr 1000 ------- 0 2.0 3.0 163 164
- 0.551232 2 3 cbr 1000 ------- 0 2.0 3.0 189 191
+ 0.552 2 3 cbr 1000 ------- 0 2.0 3.0 190 192
r 0.552032 2 3 cbr 1000 ------- 0 2.0 3.0 164 165
- 0.552032 2 3 cbr 1000 ------- 0 2.0 3.0 190 192
+ 0.5528 2 3 cbr 1000 ------- 0 2.0 3.0 191 193
r 0.552832 2 3 cbr 1000 ------- 0 2.0 3.0 165 166
- 0.552832 2 3 cbr 1000 ------- 0 2.0 3.0 191 193
+ 0.5536 2 3 cbr 1000 ------- 0 2.0 3.0 192 194
r 0.553632 2 3 cbr 1000 ------- 0 2.0 3.0 166 167
- 0.553632 2 3 cbr 1000 ------- 0 2.0 3.0 192 194
+ 0.5544 2 3 cbr 1000 ------- 0 2.0 3.0 193 195
r 0.554432 2 3 cbr 1000 ------- 0 2.0 3.0 167 168
- 0.554432 2 3 cbr 1000 ------- 0 2.0 3.0 193 195
+ 0.5552 2 3 cbr 1000 ------- 0 2.0 3.0 194 196
r 0.555232 2 3 cbr 1000 ------- 0 2.0 3.0 168 169
- 0.555232 2 3 cbr 1000 ------- 0 2.0 3.0 194 196
+ 0.556 2 3 cbr 1000 ------- 0 2.0 3.0 195 197
r 0.556032 2 3 cbr 1000 ------- 0 2.0 3.0 169 170
- 0.556032 2 3 cbr 1000 ------- 0 2.0 3.0 195 197
+ 0.5568 2 3 cbr 1000 ------- 0 2.0 3.0 196 198
r 0.556832 2 3 cbr 1000 ------- 0 2.0 3.0 170 171
- 0.556832 2 3 cbr 1000 ------- 0 2.0 3.0 196 198
+ 0.5576 2 3 cbr 1000 ------- 0 2.0 3.0 197 199
r 0.557632 2 3 cbr 1000 ------- 0 2.0 3.0 171 172
- 0.557632 2 3 cbr 1000 ------- 0 2.0 3.0 197 199
+ 0.5584 2 3 cbr 1000 ------- 0 2.0 3.0 198 200
r 0.558432 2 3 cbr 1000 ------- 0 2.0 3.0 172 173
- 0.558432 2 3 cbr 1000 ------- 0 2.0 3.0 198 200
+ 0.5592 2 3 cbr 1000 ------- 0 2.0 3.0 199 201
r 0.559232 2 3 cbr 1000 ------- 0 2.0 3.0 173 174
- 0.559232 2 3 cbr 1000 ------- 0 2.0 3.0 199 201
+ 0.56 2 3 cbr 1000 ------- 0 2.0 3.0 200 202
r 0.560032 2 3 cbr 1000 ------- 0 2.0 3.0 174 175
- 0.560032 2 3 cbr 1000 ------- 0 2.0 3.0 200 202
+ 0.5608 2 3 cbr 1000 ------- 0 2.0 3.0 201 203
r 0.560832 2 3 cbr 1000 ------- 0 2.0 3.0 175 176
- 0.560832 2 3 cbr 1000 ------- 0 2.0 3.0 201 203
+ 0.5616 2 3 cbr 1000 ------- 0 2.0 3.0 202 204
r 0.561632 2 3 cbr 1000 ------- 0 2.0 3.0 176 178
- 0.561632 2 3 cbr 1000 ------- 0 2.0 3.0 202 204
+ 0.5624 2 3 cbr 1000 ------- 0 2.0 3.0 203 205
r 0.562432 2 3 cbr 1000 ------- 0 2.0 3.0 177 179
- 0.562432 2 3 cbr 1000 ------- 0 2.0 3.0 203 205
+ 0.5632 2 3 cbr 1000 ------- 0 2.0 3.0 204 206
r 0.563232 2 3 cbr 1000 ------- 0 2.0 3.0 178 180
- 0.563232 2 3 cbr 1000 ------- 0 2.0 3.0 204 206
+ 0.564 2 3 cbr 1000 ------- 0 2.0 3.0 205 207
r 0.564032 2 3 cbr 1000 ------- 0 2.0 3.0 179 181
- 0.564032 2 3 cbr 1000 ------- 0 2.0 3.0 205 207
+ 0.5648 2 3 cbr 1000 ------- 0 2.0 3.0 206 208
r 0.564832 2 3 cbr 1000 ------- 0 2.0 3.0 180 182
- 0.564832 2 3 cbr 1000 ------- 0 2.0 3.0 206 208
+ 0.5656 2 3 cbr 1000 ------- 0 2.0 3.0 207 209
r 0.565632 2 3 cbr 1000 ------- 0 2.0 3.0 181 183
- 0.565632 2 3 cbr 1000 ------- 0 2.0 3.0 207 209
+ 0.5664 2 3 cbr 1000 ------- 0 2.0 3.0 208 210
r 0.566432 2 3 cbr 1000 ------- 0 2.0 3.0 182 184
- 0.566432 2 3 cbr 1000 ------- 0 2.0 3.0 208 210
+ 0.5672 2 3 cbr 1000 ------- 0 2.0 3.0 209 211
r 0.567232 2 3 cbr 1000 ------- 0 2.0 3.0 183 185
- 0.567232 2 3 cbr 1000 ------- 0 2.0 3.0 209 211
+ 0.568 2 3 cbr 1000 ------- 0 2.0 3.0 210 212
r 0.568032 2 3 cbr 1000 ------- 0 2.0 3.0 184 186
- 0.568032 2 3 cbr 1000 ------- 0 2.0 3.0 210 212
+ 0.5688 2 3 cbr 1000 ------- 0 2.0 3.0 211 213
r 0.568832 2 3 cbr 1000 ------- 0 2.0 3.0 185 187
- 0.568832 2 3 cbr 1000 ------- 0 2.0 3.0 211 213
+ 0.5696 2 3 cbr 1000 ------- 0 2.0 3.0 212 214
r 0.569632 2 3 cbr 1000 ------- 0 2.0 3.0 186 188
- 0.569632 2 3 cbr 1000 ------- 0 2.0 3.0 212 214
+ 0.5704 2 3 cbr 1000 ------- 0 2.0 3.0 213 215
r 0.570432 2 3 cbr 1000 ------- 0 2.0 3.0 187 189
- 0.570432 2 3 cbr 1000 ------- 0 2.0 3.0 213 215
r 0.570528 3 2 ack 40 ------- 1 4.0 0.0 0 177
+ 0.570528 2 0 ack 40 ------- 1 4.0 0.0 0 177
- 0.570528 2 0 ack 40 ------- 1 4.0 0.0 0 177
+ 0.5712 2 3 cbr 1000 ------- 0 2.0 3.0 214 216
r 0.571232 2 3 cbr 1000 ------- 0 2.0 3.0 188 190
- 0.571232 2 3 cbr 1000 ------- 0 2.0 3.0 214 216