+ 0.4 2 3 cbr 1000 ------- 0 2.0 3.0 0 0
- 0.4 2 3 cbr 1000 ------- 0 2.0 3.0 0 0
+ 0.408 2 3 cbr 1000 ------- 0 2.0 3.0 1 1
- 0.408 2 3 cbr 1000 ------- 0 2.0 3.0 1 1
+ 0.416 2 3 cbr 1000 ------- 0 2.0 3.0 2 2
- 0.416 2 3 cbr 1000 ------- 0 2.0 3.0 2 2
r 0.4208 2 3 cbr 1000 ------- 0 2.0 3.0 0 0
+ 0.424 2 3 cbr 1000 ------- 0 2.0 3.0 3 3
- 0.424 2 3 cbr 1000 ------- 0 2.0 3.0 3 3
r 0.4288 2 3 cbr 1000 ------- 0 2.0 3.0 1 1
+ 0.432 2 3 cbr 1000 ------- 0 2.0 3.0 4 4
- 0.432 2 3 cbr 1000 ------- 0 2.0 3.0 4 4
r 0.4368 2 3 cbr 1000 ------- 0 2.0 3.0 2 2
+ 0.44 2 3 cbr 1000 ------- 0 2.0 3.0 5 5
- 0.44 2 3 cbr 1000 ------- 0 2.0 3.0 5 5
r 0.4448 2 3 cbr 1000 ------- 0 2.0 3.0 3 3
+ 0.448 2 3 cbr 1000 ------- 0 2.0 3.0 6 6
- 0.448 2 3 cbr 1000 ------- 0 2.0 3.0 6 6
r 0.4528 2 3 cbr 1000 ------- 0 2.0 3.0 4 4
+ 0.456 2 3 cbr 1000 ------- 0 2.0 3.0 7 7
- 0.456 2 3 cbr 1000 ------- 0 2.0 3.0 7 7
r 0.4608 2 3 cbr 1000 ------- 0 2.0 3.0 5 5
+ 0.464 2 3 cbr 1000 ------- 0 2.0 3.0 8 8
- 0.464 2 3 cbr 1000 ------- 0 2.0 3.0 8 8
r 0.4688 2 3 cbr 1000 ------- 0 2.0 3.0 6 6
+ 0.472 2 3 cbr 1000 ------- 0 2.0 3.0 9 9
- 0.472 2 3 cbr 1000 ------- 0 2.0 3.0 9 9
r 0.4768 2 3 cbr 1000 ------- 0 2.0 3.0 7 7
+ 0.48 2 3 cbr 1000 ------- 0 2.0 3.0 10 10
- 0.48 2 3 cbr 1000 ------- 0 2.0 3.0 10 10
r 0.4848 2 3 cbr 1000 ------- 0 2.0 3.0 8 8
+ 0.488 2 3 cbr 1000 ------- 0 2.0 3.0 11 11
- 0.488 2 3 cbr 1000 ------- 0 2.0 3.0 11 11
r 0.4928 2 3 cbr 1000 ------- 0 2.0 3.0 9 9
+ 0.496 2 3 cbr 1000 ------- 0 2.0 3.0 12 12
- 0.496 2 3 cbr 1000 ------- 0 2.0 3.0 12 12
+ 0.5 0 2 tcp 40 ------- 1 0.0 4.0 0 13
- 0.5 0 2 tcp 40 ------- 1 0.0 4.0 0 13
r 0.5008 2 3 cbr 1000 ------- 0 2.0 3.0 10 10
+ 0.504 2 3 cbr 1000 ------- 0 2.0 3.0 13 14
- 0.504 2 3 cbr 1000 ------- 0 2.0 3.0 13 14
r 0.5088 2 3 cbr 1000 ------- 0 2.0 3.0 11 11
r 0.510032 0 2 tcp 40 ------- 1 0.0 4.0 0 13
+ 0.510032 2 3 tcp 40 ------- 1 0.0 4.0 0 13
- 0.510032 2 3 tcp 40 ------- 1 0.0 4.0 0 13
+ 0.512 2 3 cbr 1000 ------- 0 2.0 3.0 14 15
- 0.512 2 3 cbr 1000 ------- 0 2.0 3.0 14 15
r 0.5168 2 3 cbr 1000 ------- 0 2.0 3.0 12 12
+ 0.52 2 3 cbr 1000 ------- 0 2.0 3.0 15 16
- 0.52 2 3 cbr 1000 ------- 0 2.0 3.0 15 16
r 0.5248 2 3 cbr 1000 ------- 0 2.0 3.0 13 14
+ 0.528 2 3 cbr 1000 ------- 0 2.0 3.0 16 17
- 0.528 2 3 cbr 1000 ------- 0 2.0 3.0 16 17
r 0.530064 2 3 tcp 40 ------- 1 0.0 4.0 0 13
+ 0.530064 3 4 tcp 40 ------- 1 0.0 4.0 0 13
- 0.530064 3 4 tcp 40 ------- 1 0.0 4.0 0 13
r 0.5328 2 3 cbr 1000 ------- 0 2.0 3.0 14 15
+ 0.536 2 3 cbr 1000 ------- 0 2.0 3.0 17 18
- 0.536 2 3 cbr 1000 ------- 0 2.0 3.0 17 18
r 0.540096 3 4 tcp 40 ------- 1 0.0 4.0 0 13
+ 0.540096 4 3 ack 40 ------- 1 4.0 0.0 0 19
- 0.540096 4 3 ack 40 ------- 1 4.0 0.0 0 19
r 0.5408 2 3 cbr 1000 ------- 0 2.0 3.0 15 16
+ 0.544 2 3 cbr 1000 ------- 0 2.0 3.0 18 20
- 0.544 2 3 cbr 1000 ------- 0 2.0 3.0 18 20
r 0.5488 2 3 cbr 1000 ------- 0 2.0 3.0 16 17
r 0.550128 4 3 ack 40 ------- 1 4.0 0.0 0 19
+ 0.550128 3 2 ack 40 ------- 1 4.0 0.0 0 19
- 0.550128 3 2 ack 40 ------- 1 4.0 0.0 0 19
+ 0.552 2 3 cbr 1000 ------- 0 2.0 3.0 19 21
- 0.552 2 3 cbr 1000 ------- 0 2.0 3.0 19 21
r 0.5568 2 3 cbr 1000 ------- 0 2.0 3.0 17 18
+ 0.56 2 3 cbr 1000 ------- 0 2.0 3.0 20 22
- 0.56 2 3 cbr 1000 ------- 0 2.0 3.0 20 22
r 0.5648 2 3 cbr 1000 ------- 0 2.0 3.0 18 20
+ 0.568 2 3 cbr 1000 ------- 0 2.0 3.0 21 23
- 0.568 2 3 cbr 1000 ------- 0 2.0 3.0 21 23
r 0.57016 3 2 ack 40 ------- 1 4.0 0.0 0 19
+ 0.57016 2 0 ack 40 ------- 1 4.0 0.0 0 19
- 0.57016 2 0 ack 40 ------- 1 4.0 0.0 0 19
r 0.5728 2 3 cbr 1000 ------- 0 2.0 3.0 19 21
+ 0.576 2 3 cbr 1000 ------- 0 2.0 3.0 22 24
- 0.576 2 3 cbr 1000 ------- 0 2.0 3.0 22 24
r 0.580192 2 0 ack 40 ------- 1 4.0 0.0 0 19
+ 0.580192 0 2 tcp 1040 ------- 1 0.0 4.0 1 25
- 0.580192 0 2 tcp 1040 ------- 1 0.0 4.0 1 25
+ 0.580192 0 2 tcp 1040 ------- 1 0.0 4.0 2 26
r 0.5808 2 3 cbr 1000 ------- 0 2.0 3.0 20 22
- 0.581024 0 2 tcp 1040 ------- 1 0.0 4.0 2 26
+ 0.584 2 3 cbr 1000 ------- 0 2.0 3.0 23 27
- 0.584 2 3 cbr 1000 ------- 0 2.0 3.0 23 27
r 0.5888 2 3 cbr 1000 ------- 0 2.0 3.0 21 23
r 0.591024 0 2 tcp 1040 ------- 1 0.0 4.0 1 25
+ 0.591024 2 3 tcp 1040 ------- 1 0.0 4.0 1 25
- 0.591024 2 3 tcp 1040 ------- 1 0.0 4.0 1 25
r 0.591856 0 2 tcp 1040 ------- 1 0.0 4.0 2 26
+ 0.591856 2 3 tcp 1040 ------- 1 0.0 4.0 2 26
- 0.591856 2 3 tcp 1040 ------- 1 0.0 4.0 2 26
+ 0.592 2 3 cbr 1000 ------- 0 2.0 3.0 24 28
- 0.592688 2 3 cbr 1000 ------- 0 2.0 3.0 24 28
r 0.5968 2 3 cbr 1000 ------- 0 2.0 3.0 22 24
+ 0.6 2 3 cbr 1000 ------- 0 2.0 3.0 25 29
- 0.6 2 3 cbr 1000 ------- 0 2.0 3.0 25 29
r 0.6048 2 3 cbr 1000 ------- 0 2.0 3.0 23 27
+ 0.608 2 3 cbr 1000 ------- 0 2.0 3.0 26 30
- 0.608 2 3 cbr 1000 ------- 0 2.0 3.0 26 30
r 0.611856 2 3 tcp 1040 ------- 1 0.0 4.0 1 25
+ 0.611856 3 4 tcp 1040 ------- 1 0.0 4.0 1 25
- 0.611856 3 4 tcp 1040 ------- 1 0.0 4.0 1 25
r 0.612688 2 3 tcp 1040 ------- 1 0.0 4.0 2 26
+ 0.612688 3 4 tcp 1040 ------- 1 0.0 4.0 2 26
- 0.612688 3 4 tcp 1040 ------- 1 0.0 4.0 2 26
r 0.613488 2 3 cbr 1000 ------- 0 2.0 3.0 24 28
+ 0.616 2 3 cbr 1000 ------- 0 2.0 3.0 27 31
- 0.616 2 3 cbr 1000 ------- 0 2.0 3.0 27 31
r 0.6208 2 3 cbr 1000 ------- 0 2.0 3.0 25 29
r 0.622688 3 4 tcp 1040 ------- 1 0.0 4.0 1 25
+ 0.622688 4 3 ack 40 ------- 1 4.0 0.0 1 32
- 0.622688 4 3 ack 40 ------- 1 4.0 0.0 1 32
r 0.62352 3 4 tcp 1040 ------- 1 0.0 4.0 2 26
+ 0.62352 4 3 ack 40 ------- 1 4.0 0.0 2 33
- 0.62352 4 3 ack 40 ------- 1 4.0 0.0 2 33
+ 0.624 2 3 cbr 1000 ------- 0 2.0 3.0 28 34
- 0.624 2 3 cbr 1000 ------- 0 2.0 3.0 28 34
r 0.6288 2 3 cbr 1000 ------- 0 2.0 3.0 26 30
+ 0.632 2 3 cbr 1000 ------- 0 2.0 3.0 29 35
- 0.632 2 3 cbr 1000 ------- 0 2.0 3.0 29 35
r 0.63272 4 3 ack 40 ------- 1 4.0 0.0 1 32
+ 0.63272 3 2 ack 40 ------- 1 4.0 0.0 1 32
- 0.63272 3 2 ack 40 ------- 1 4.0 0.0 1 32
r 0.633552 4 3 ack 40 ------- 1 4.0 0.0 2 33
+ 0.633552 3 2 ack 40 ------- 1 4.0 0.0 2 33
- 0.633552 3 2 ack 40 ------- 1 4.0 0.0 2 33
r 0.6368 2 3 cbr 1000 ------- 0 2.0 3.0 27 31
+ 0.64 2 3 cbr 1000 ------- 0 2.0 3.0 30 36
- 0.64 2 3 cbr 1000 ------- 0 2.0 3.0 30 36
r 0.6448 2 3 cbr 1000 ------- 0 2.0 3.0 28 34
+ 0.648 2 3 cbr 1000 ------- 0 2.0 3.0 31 37
- 0.648 2 3 cbr 1000 ------- 0 2.0 3.0 31 37
r 0.652752 3 2 ack 40 ------- 1 4.0 0.0 1 32
+ 0.652752 2 0 ack 40 ------- 1 4.0 0.0 1 32
- 0.652752 2 0 ack 40 ------- 1 4.0 0.0 1 32
r 0.6528 2 3 cbr 1000 ------- 0 2.0 3.0 29 35
r 0.653584 3 2 ack 40 ------- 1 4.0 0.0 2 33
+ 0.653584 2 0 ack 40 ------- 1 4.0 0.0 2 33
- 0.653584 2 0 ack 40 ------- 1 4.0 0.0 2 33
+ 0.656 2 3 cbr 1000 ------- 0 2.0 3.0 32 38
- 0.656 2 3 cbr 1000 ------- 0 2.0 3.0 32 38
r 0.6608 2 3 cbr 1000 ------- 0 2.0 3.0 30 36
r 0.662784 2 0 ack 40 ------- 1 4.0 0.0 1 32
+ 0.662784 0 2 tcp 1040 ------- 1 0.0 4.0 3 39
- 0.662784 0 2 tcp 1040 ------- 1 0.0 4.0 3 39
+ 0.662784 0 2 tcp 1040 ------- 1 0.0 4.0 4 40
r 0.663616 2 0 ack 40 ------- 1 4.0 0.0 2 33
+ 0.663616 0 2 tcp 1040 ------- 1 0.0 4.0 5 41
+ 0.663616 0 2 tcp 1040 ------- 1 0.0 4.0 6 42
- 0.663616 0 2 tcp 1040 ------- 1 0.0 4.0 4 40
+ 0.664 2 3 cbr 1000 ------- 0 2.0 3.0 33 43
- 0.664 2 3 cbr 1000 ------- 0 2.0 3.0 33 43
- 0.664448 0 2 tcp 1040 ------- 1 0.0 4.0 5 41
- 0.66528 0 2 tcp 1040 ------- 1 0.0 4.0 6 42
r 0.6688 2 3 cbr 1000 ------- 0 2.0 3.0 31 37
+ 0.672 2 3 cbr 1000 ------- 0 2.0 3.0 34 44
- 0.672 2 3 cbr 1000 ------- 0 2.0 3.0 34 44
r 0.673616 0 2 tcp 1040 ------- 1 0.0 4.0 3 39
+ 0.673616 2 3 tcp 1040 ------- 1 0.0 4.0 3 39
- 0.673616 2 3 tcp 1040 ------- 1 0.0 4.0 3 39
r 0.674448 0 2 tcp 1040 ------- 1 0.0 4.0 4 40
+ 0.674448 2 3 tcp 1040 ------- 1 0.0 4.0 4 40
- 0.674448 2 3 tcp 1040 ------- 1 0.0 4.0 4 40
r 0.67528 0 2 tcp 1040 ------- 1 0.0 4.0 5 41
+ 0.67528 2 3 tcp 1040 ------- 1 0.0 4.0 5 41
- 0.67528 2 3 tcp 1040 ------- 1 0.0 4.0 5 41
r 0.676112 0 2 tcp 1040 ------- 1 0.0 4.0 6 42
+ 0.676112 2 3 tcp 1040 ------- 1 0.0 4.0 6 42
- 0.676112 2 3 tcp 1040 ------- 1 0.0 4.0 6 42
r 0.6768 2 3 cbr 1000 ------- 0 2.0 3.0 32 38
+ 0.68 2 3 cbr 1000 ------- 0 2.0 3.0 35 45
- 0.68 2 3 cbr 1000 ------- 0 2.0 3.0 35 45
r 0.6848 2 3 cbr 1000 ------- 0 2.0 3.0 33 43
+ 0.688 2 3 cbr 1000 ------- 0 2.0 3.0 36 46
- 0.688 2 3 cbr 1000 ------- 0 2.0 3.0 36 46
r 0.6928 2 3 cbr 1000 ------- 0 2.0 3.0 34 44
r 0.694448 2 3 tcp 1040 ------- 1 0.0 4.0 3 39
+ 0.694448 3 4 tcp 1040 ------- 1 0.0 4.0 3 39
- 0.694448 3 4 tcp 1040 ------- 1 0.0 4.0 3 39
r 0.69528 2 3 tcp 1040 ------- 1 0.0 4.0 4 40
+ 0.69528 3 4 tcp 1040 ------- 1 0.0 4.0 4 40
- 0.69528 3 4 tcp 1040 ------- 1 0.0 4.0 4 40
+ 0.696 2 3 cbr 1000 ------- 0 2.0 3.0 37 47
- 0.696 2 3 cbr 1000 ------- 0 2.0 3.0 37 47
r 0.696112 2 3 tcp 1040 ------- 1 0.0 4.0 5 41
+ 0.696112 3 4 tcp 1040 ------- 1 0.0 4.0 5 41
- 0.696112 3 4 tcp 1040 ------- 1 0.0 4.0 5 41
r 0.696944 2 3 tcp 1040 ------- 1 0.0 4.0 6 42
+ 0.696944 3 4 tcp 1040 ------- 1 0.0 4.0 6 42
- 0.696944 3 4 tcp 1040 ------- 1 0.0 4.0 6 42
r 0.7008 2 3 cbr 1000 ------- 0 2.0 3.0 35 45
+ 0.704 2 3 cbr 1000 ------- 0 2.0 3.0 38 48
- 0.704 2 3 cbr 1000 ------- 0 2.0 3.0 38 48
r 0.70528 3 4 tcp 1040 ------- 1 0.0 4.0 3 39
+ 0.70528 4 3 ack 40 ------- 1 4.0 0.0 3 49
- 0.70528 4 3 ack 40 ------- 1 4.0 0.0 3 49
r 0.706112 3 4 tcp 1040 ------- 1 0.0 4.0 4 40
+ 0.706112 4 3 ack 40 ------- 1 4.0 0.0 4 50
- 0.706112 4 3 ack 40 ------- 1 4.0 0.0 4 50
r 0.706944 3 4 tcp 1040 ------- 1 0.0 4.0 5 41
+ 0.706944 4 3 ack 40 ------- 1 4.0 0.0 5 51
- 0.706944 4 3 ack 40 ------- 1 4.0 0.0 5 51
r 0.707776 3 4 tcp 1040 ------- 1 0.0 4.0 6 42
+ 0.707776 4 3 ack 40 ------- 1 4.0 0.0 6 52
- 0.707776 4 3 ack 40 ------- 1 4.0 0.0 6 52
r 0.7088 2 3 cbr 1000 ------- 0 2.0 3.0 36 46
+ 0.712 2 3 cbr 1000 ------- 0 2.0 3.0 39 53
- 0.712 2 3 cbr 1000 ------- 0 2.0 3.0 39 53
r 0.715312 4 3 ack 40 ------- 1 4.0 0.0 3 49
+ 0.715312 3 2 ack 40 ------- 1 4.0 0.0 3 49
- 0.715312 3 2 ack 40 ------- 1 4.0 0.0 3 49
r 0.716144 4 3 ack 40 ------- 1 4.0 0.0 4 50
+ 0.716144 3 2 ack 40 ------- 1 4.0 0.0 4 50
- 0.716144 3 2 ack 40 ------- 1 4.0 0.0 4 50
r 0.7168 2 3 cbr 1000 ------- 0 2.0 3.0 37 47
r 0.716976 4 3 ack 40 ------- 1 4.0 0.0 5 51
+ 0.716976 3 2 ack 40 ------- 1 4.0 0.0 5 51
- 0.716976 3 2 ack 40 ------- 1 4.0 0.0 5 51
r 0.717808 4 3 ack 40 ------- 1 4.0 0.0 6 52
+ 0.717808 3 2 ack 40 ------- 1 4.0 0.0 6 52
- 0.717808 3 2 ack 40 ------- 1 4.0 0.0 6 52
+ 0.72 2 3 cbr 1000 ------- 0 2.0 3.0 40 54
- 0.72 2 3 cbr 1000 ------- 0 2.0 3.0 40 54
r 0.7248 2 3 cbr 1000 ------- 0 2.0 3.0 38 48
+ 0.728 2 3 cbr 1000 ------- 0 2.0 3.0 41 55
- 0.728 2 3 cbr 1000 ------- 0 2.0 3.0 41 55
r 0.7328 2 3 cbr 1000 ------- 0 2.0 3.0 39 53
r 0.735344 3 2 ack 40 ------- 1 4.0 0.0 3 49
+ 0.735344 2 0 ack 40 ------- 1 4.0 0.0 3 49
- 0.735344 2 0 ack 40 ------- 1 4.0 0.0 3 49
+ 0.736 2 3 cbr 1000 ------- 0 2.0 3.0 42 56
- 0.736 2 3 cbr 1000 ------- 0 2.0 3.0 42 56
r 0.736176 3 2 ack 40 ------- 1 4.0 0.0 4 50
+ 0.736176 2 0 ack 40 ------- 1 4.0 0.0 4 50
- 0.736176 2 0 ack 40 ------- 1 4.0 0.0 4 50
r 0.737008 3 2 ack 40 ------- 1 4.0 0.0 5 51
+ 0.737008 2 0 ack 40 ------- 1 4.0 0.0 5 51
- 0.737008 2 0 ack 40 ------- 1 4.0 0.0 5 51
r 0.73784 3 2 ack 40 ------- 1 4.0 0.0 6 52
+ 0.73784 2 0 ack 40 ------- 1 4.0 0.0 6 52
- 0.73784 2 0 ack 40 ------- 1 4.0 0.0 6 52
r 0.7408 2 3 cbr 1000 ------- 0 2.0 3.0 40 54
+ 0.744 2 3 cbr 1000 ------- 0 2.0 3.0 43 57
- 0.744 2 3 cbr 1000 ------- 0 2.0 3.0 43 57
r 0.745376 2 0 ack 40 ------- 1 4.0 0.0 3 49
+ 0.745376 0 2 tcp 1040 ------- 1 0.0 4.0 7 58
- 0.745376 0 2 tcp 1040 ------- 1 0.0 4.0 7 58
+ 0.745376 0 2 tcp 1040 ------- 1 0.0 4.0 8 59
r 0.746208 2 0 ack 40 ------- 1 4.0 0.0 4 50
+ 0.746208 0 2 tcp 1040 ------- 1 0.0 4.0 9 60
+ 0.746208 0 2 tcp 1040 ------- 1 0.0 4.0 10 61
- 0.746208 0 2 tcp 1040 ------- 1 0.0 4.0 8 59
r 0.74704 2 0 ack 40 ------- 1 4.0 0.0 5 51
+ 0.74704 0 2 tcp 1040 ------- 1 0.0 4.0 11 62
+ 0.74704 0 2 tcp 1040 ------- 1 0.0 4.0 12 63
- 0.74704 0 2 tcp 1040 ------- 1 0.0 4.0 9 60
r 0.747872 2 0 ack 40 ------- 1 4.0 0.0 6 52
+ 0.747872 0 2 tcp 1040 ------- 1 0.0 4.0 13 64
+ 0.747872 0 2 tcp 1040 ------- 1 0.0 4.0 14 65
- 0.747872 0 2 tcp 1040 ------- 1 0.0 4.0 10 61
- 0.748704 0 2 tcp 1040 ------- 1 0.0 4.0 11 62
r 0.7488 2 3 cbr 1000 ------- 0 2.0 3.0 41 55
- 0.749536 0 2 tcp 1040 ------- 1 0.0 4.0 12 63
- 0.750368 0 2 tcp 1040 ------- 1 0.0 4.0 13 64
- 0.7512 0 2 tcp 1040 ------- 1 0.0 4.0 14 65
+ 0.752 2 3 cbr 1000 ------- 0 2.0 3.0 44 66
- 0.752 2 3 cbr 1000 ------- 0 2.0 3.0 44 66
r 0.756208 0 2 tcp 1040 ------- 1 0.0 4.0 7 58
+ 0.756208 2 3 tcp 1040 ------- 1 0.0 4.0 7 58
- 0.756208 2 3 tcp 1040 ------- 1 0.0 4.0 7 58
r 0.7568 2 3 cbr 1000 ------- 0 2.0 3.0 42 56
r 0.75704 0 2 tcp 1040 ------- 1 0.0 4.0 8 59
+ 0.75704 2 3 tcp 1040 ------- 1 0.0 4.0 8 59
- 0.75704 2 3 tcp 1040 ------- 1 0.0 4.0 8 59
r 0.757872 0 2 tcp 1040 ------- 1 0.0 4.0 9 60
+ 0.757872 2 3 tcp 1040 ------- 1 0.0 4.0 9 60
- 0.757872 2 3 tcp 1040 ------- 1 0.0 4.0 9 60
r 0.758704 0 2 tcp 1040 ------- 1 0.0 4.0 10 61
+ 0.758704 2 3 tcp 1040 ------- 1 0.0 4.0 10 61
- 0.758704 2 3 tcp 1040 ------- 1 0.0 4.0 10 61
r 0.759536 0 2 tcp 1040 ------- 1 0.0 4.0 11 62
+ 0.759536 2 3 tcp 1040 ------- 1 0.0 4.0 11 62
- 0.759536 2 3 tcp 1040 ------- 1 0.0 4.0 11 62
+ 0.76 2 3 cbr 1000 ------- 0 2.0 3.0 45 67
r 0.760368 0 2 tcp 1040 ------- 1 0.0 4.0 12 63
+ 0.760368 2 3 tcp 1040 ------- 1 0.0 4.0 12 63
- 0.760368 2 3 cbr 1000 ------- 0 2.0 3.0 45 67
- 0.761168 2 3 tcp 1040 ------- 1 0.0 4.0 12 63
r 0.7612 0 2 tcp 1040 ------- 1 0.0 4.0 13 64
+ 0.7612 2 3 tcp 1040 ------- 1 0.0 4.0 13 64
- 0.762 2 3 tcp 1040 ------- 1 0.0 4.0 13 64
r 0.762032 0 2 tcp 1040 ------- 1 0.0 4.0 14 65
+ 0.762032 2 3 tcp 1040 ------- 1 0.0 4.0 14 65
- 0.762832 2 3 tcp 1040 ------- 1 0.0 4.0 14 65
r 0.7648 2 3 cbr 1000 ------- 0 2.0 3.0 43 57
+ 0.768 2 3 cbr 1000 ------- 0 2.0 3.0 46 68
- 0.768 2 3 cbr 1000 ------- 0 2.0 3.0 46 68
r 0.7728 2 3 cbr 1000 ------- 0 2.0 3.0 44 66
+ 0.776 2 3 cbr 1000 ------- 0 2.0 3.0 47 69
- 0.776 2 3 cbr 1000 ------- 0 2.0 3.0 47 69
r 0.77704 2 3 tcp 1040 ------- 1 0.0 4.0 7 58
+ 0.77704 3 4 tcp 1040 ------- 1 0.0 4.0 7 58
- 0.77704 3 4 tcp 1040 ------- 1 0.0 4.0 7 58
r 0.777872 2 3 tcp 1040 ------- 1 0.0 4.0 8 59
+ 0.777872 3 4 tcp 1040 ------- 1 0.0 4.0 8 59
- 0.777872 3 4 tcp 1040 ------- 1 0.0 4.0 8 59
r 0.778704 2 3 tcp 1040 ------- 1 0.0 4.0 9 60
+ 0.778704 3 4 tcp 1040 ------- 1 0.0 4.0 9 60
- 0.778704 3 4 tcp 1040 ------- 1 0.0 4.0 9 60
r 0.779536 2 3 tcp 1040 ------- 1 0.0 4.0 10 61
+ 0.779536 3 4 tcp 1040 ------- 1 0.0 4.0 10 61
- 0.779536 3 4 tcp 1040 ------- 1 0.0 4.0 10 61
r 0.780368 2 3 tcp 1040 ------- 1 0.0 4.0 11 62
+ 0.780368 3 4 tcp 1040 ------- 1 0.0 4.0 11 62
- 0.780368 3 4 tcp 1040 ------- 1 0.0 4.0 11 62
r 0.781168 2 3 cbr 1000 ------- 0 2.0 3.0 45 67
r 0.782 2 3 tcp 1040 ------- 1 0.0 4.0 12 63
+ 0.782 3 4 tcp 1040 ------- 1 0.0 4.0 12 63
- 0.782 3 4 tcp 1040 ------- 1 0.0 4.0 12 63
r 0.782832 2 3 tcp 1040 ------- 1 0.0 4.0 13 64
+ 0.782832 3 4 tcp 1040 ------- 1 0.0 4.0 13 64
- 0.782832 3 4 tcp 1040 ------- 1 0.0 4.0 13 64
r 0.783664 2 3 tcp 1040 ------- 1 0.0 4.0 14 65
+ 0.783664 3 4 tcp 1040 ------- 1 0.0 4.0 14 65
- 0.783664 3 4 tcp 1040 ------- 1 0.0 4.0 14 65
+ 0.784 2 3 cbr 1000 ------- 0 2.0 3.0 48 70
- 0.784 2 3 cbr 1000 ------- 0 2.0 3.0 48 70
r 0.787872 3 4 tcp 1040 ------- 1 0.0 4.0 7 58
+ 0.787872 4 3 ack 40 ------- 1 4.0 0.0 7 71
- 0.787872 4 3 ack 40 ------- 1 4.0 0.0 7 71
r 0.788704 3 4 tcp 1040 ------- 1 0.0 4.0 8 59
+ 0.788704 4 3 ack 40 ------- 1 4.0 0.0 8 72
- 0.788704 4 3 ack 40 ------- 1 4.0 0.0 8 72
r 0.7888 2 3 cbr 1000 ------- 0 2.0 3.0 46 68
r 0.789536 3 4 tcp 1040 ------- 1 0.0 4.0 9 60
+ 0.789536 4 3 ack 40 ------- 1 4.0 0.0 9 73
- 0.789536 4 3 ack 40 ------- 1 4.0 0.0 9 73
r 0.790368 3 4 tcp 1040 ------- 1 0.0 4.0 10 61
+ 0.790368 4 3 ack 40 ------- 1 4.0 0.0 10 74
- 0.790368 4 3 ack 40 ------- 1 4.0 0.0 10 74
r 0.7912 3 4 tcp 1040 ------- 1 0.0 4.0 11 62
+ 0.7912 4 3 ack 40 ------- 1 4.0 0.0 11 75
- 0.7912 4 3 ack 40 ------- 1 4.0 0.0 11 75
+ 0.792 2 3 cbr 1000 ------- 0 2.0 3.0 49 76
- 0.792 2 3 cbr 1000 ------- 0 2.0 3.0 49 76
r 0.792832 3 4 tcp 1040 ------- 1 0.0 4.0 12 63
+ 0.792832 4 3 ack 40 ------- 1 4.0 0.0 12 77
- 0.792832 4 3 ack 40 ------- 1 4.0 0.0 12 77
r 0.793664 3 4 tcp 1040 ------- 1 0.0 4.0 13 64
+ 0.793664 4 3 ack 40 ------- 1 4.0 0.0 13 78
- 0.793664 4 3 ack 40 ------- 1 4.0 0.0 13 78
r 0.794496 3 4 tcp 1040 ------- 1 0.0 4.0 14 65
+ 0.794496 4 3 ack 40 ------- 1 4.0 0.0 14 79
- 0.794496 4 3 ack 40 ------- 1 4.0 0.0 14 79
r 0.7968 2 3 cbr 1000 ------- 0 2.0 3.0 47 69
r 0.797904 4 3 ack 40 ------- 1 4.0 0.0 7 71
+ 0.797904 3 2 ack 40 ------- 1 4.0 0.0 7 71
- 0.797904 3 2 ack 40 ------- 1 4.0 0.0 7 71
r 0.798736 4 3 ack 40 ------- 1 4.0 0.0 8 72
+ 0.798736 3 2 ack 40 ------- 1 4.0 0.0 8 72
- 0.798736 3 2 ack 40 ------- 1 4.0 0.0 8 72
r 0.799568 4 3 ack 40 ------- 1 4.0 0.0 9 73
+ 0.799568 3 2 ack 40 ------- 1 4.0 0.0 9 73
- 0.799568 3 2 ack 40 ------- 1 4.0 0.0 9 73
+ 0.8 2 3 cbr 1000 ------- 0 2.0 3.0 50 80
- 0.8 2 3 cbr 1000 ------- 0 2.0 3.0 50 80
r 0.8004 4 3 ack 40 ------- 1 4.0 0.0 10 74
+ 0.8004 3 2 ack 40 ------- 1 4.0 0.0 10 74
- 0.8004 3 2 ack 40 ------- 1 4.0 0.0 10 74
r 0.801232 4 3 ack 40 ------- 1 4.0 0.0 11 75
+ 0.801232 3 2 ack 40 ------- 1 4.0 0.0 11 75
- 0.801232 3 2 ack 40 ------- 1 4.0 0.0 11 75
r 0.802864 4 3 ack 40 ------- 1 4.0 0.0 12 77
+ 0.802864 3 2 ack 40 ------- 1 4.0 0.0 12 77
- 0.802864 3 2 ack 40 ------- 1 4.0 0.0 12 77
r 0.803696 4 3 ack 40 ------- 1 4.0 0.0 13 78
+ 0.803696 3 2 ack 40 ------- 1 4.0 0.0 13 78
- 0.803696 3 2 ack 40 ------- 1 4.0 0.0 13 78
r 0.804528 4 3 ack 40 ------- 1 4.0 0.0 14 79
+ 0.804528 3 2 ack 40 ------- 1 4.0 0.0 14 79
- 0.804528 3 2 ack 40 ------- 1 4.0 0.0 14 79
r 0.8048 2 3 cbr 1000 ------- 0 2.0 3.0 48 70
+ 0.808 2 3 cbr 1000 ------- 0 2.0 3.0 51 81
- 0.808 2 3 cbr 1000 ------- 0 2.0 3.0 51 81
r 0.8128 2 3 cbr 1000 ------- 0 2.0 3.0 49 76
+ 0.816 2 3 cbr 1000 ------- 0 2.0 3.0 52 82
- 0.816 2 3 cbr 1000 ------- 0 2.0 3.0 52 82
r 0.817936 3 2 ack 40 ------- 1 4.0 0.0 7 71
+ 0.817936 2 0 ack 40 ------- 1 4.0 0.0 7 71
- 0.817936 2 0 ack 40 ------- 1 4.0 0.0 7 71
r 0.818768 3 2 ack 40 ------- 1 4.0 0.0 8 72
+ 0.818768 2 0 ack 40 ------- 1 4.0 0.0 8 72
- 0.818768 2 0 ack 40 ------- 1 4.0 0.0 8 72
r 0.8196 3 2 ack 40 ------- 1 4.0 0.0 9 73
+ 0.8196 2 0 ack 40 ------- 1 4.0 0.0 9 73
- 0.8196 2 0 ack 40 ------- 1 4.0 0.0 9 73
r 0.820432 3 2 ack 40 ------- 1 4.0 0.0 10 74
+ 0.820432 2 0 ack 40 ------- 1 4.0 0.0 10 74
- 0.820432 2 0 ack 40 ------- 1 4.0 0.0 10 74
r 0.8208 2 3 cbr 1000 ------- 0 2.0 3.0 50 80
r 0.821264 3 2 ack 40 ------- 1 4.0 0.0 11 75
+ 0.821264 2 0 ack 40 ------- 1 4.0 0.0 11 75
- 0.821264 2 0 ack 40 ------- 1 4.0 0.0 11 75
r 0.822896 3 2 ack 40 ------- 1 4.0 0.0 12 77
+ 0.822896 2 0 ack 40 ------- 1 4.0 0.0 12 77
- 0.822896 2 0 ack 40 ------- 1 4.0 0.0 12 77
r 0.823728 3 2 ack 40 ------- 1 4.0 0.0 13 78
+ 0.823728 2 0 ack 40 ------- 1 4.0 0.0 13 78
- 0.823728 2 0 ack 40 ------- 1 4.0 0.0 13 78
+ 0.824 2 3 cbr 1000 ------- 0 2.0 3.0 53 83
- 0.824 2 3 cbr 1000 ------- 0 2.0 3.0 53 83
r 0.82456 3 2 ack 40 ------- 1 4.0 0.0 14 79
+ 0.82456 2 0 ack 40 ------- 1 4.0 0.0 14 79
- 0.82456 2 0 ack 40 ------- 1 4.0 0.0 14 79
r 0.827968 2 0 ack 40 ------- 1 4.0 0.0 7 71
+ 0.827968 0 2 tcp 1040 ------- 1 0.0 4.0 15 84
- 0.827968 0 2 tcp 1040 ------- 1 0.0 4.0 15 84
+ 0.827968 0 2 tcp 1040 ------- 1 0.0 4.0 16 85
r 0.8288 2 0 ack 40 ------- 1 4.0 0.0 8 72
+ 0.8288 0 2 tcp 1040 ------- 1 0.0 4.0 17 86
+ 0.8288 0 2 tcp 1040 ------- 1 0.0 4.0 18 87
- 0.8288 0 2 tcp 1040 ------- 1 0.0 4.0 16 85
r 0.8288 2 3 cbr 1000 ------- 0 2.0 3.0 51 81
r 0.829632 2 0 ack 40 ------- 1 4.0 0.0 9 73
+ 0.829632 0 2 tcp 1040 ------- 1 0.0 4.0 19 88
+ 0.829632 0 2 tcp 1040 ------- 1 0.0 4.0 20 89
- 0.829632 0 2 tcp 1040 ------- 1 0.0 4.0 17 86
r 0.830464 2 0 ack 40 ------- 1 4.0 0.0 10 74
+ 0.830464 0 2 tcp 1040 ------- 1 0.0 4.0 21 90
+ 0.830464 0 2 tcp 1040 ------- 1 0.0 4.0 22 91
- 0.830464 0 2 tcp 1040 ------- 1 0.0 4.0 18 87
r 0.831296 2 0 ack 40 ------- 1 4.0 0.0 11 75
+ 0.831296 0 2 tcp 1040 ------- 1 0.0 4.0 23 92
+ 0.831296 0 2 tcp 1040 ------- 1 0.0 4.0 24 93
- 0.831296 0 2 tcp 1040 ------- 1 0.0 4.0 19 88
+ 0.832 2 3 cbr 1000 ------- 0 2.0 3.0 54 94
- 0.832 2 3 cbr 1000 ------- 0 2.0 3.0 54 94
- 0.832128 0 2 tcp 1040 ------- 1 0.0 4.0 20 89
r 0.832928 2 0 ack 40 ------- 1 4.0 0.0 12 77
+ 0.832928 0 2 tcp 1040 ------- 1 0.0 4.0 25 95
+ 0.832928 0 2 tcp 1040 ------- 1 0.0 4.0 26 96
- 0.83296 0 2 tcp 1040 ------- 1 0.0 4.0 21 90
r 0.83376 2 0 ack 40 ------- 1 4.0 0.0 13 78
+ 0.83376 0 2 tcp 1040 ------- 1 0.0 4.0 27 97
+ 0.83376 0 2 tcp 1040 ------- 1 0.0 4.0 28 98
- 0.833792 0 2 tcp 1040 ------- 1 0.0 4.0 22 91
r 0.834592 2 0 ack 40 ------- 1 4.0 0.0 14 79
+ 0.834592 0 2 tcp 1040 ------- 1 0.0 4.0 29 99
+ 0.834592 0 2 tcp 1040 ------- 1 0.0 4.0 30 100
- 0.834624 0 2 tcp 1040 ------- 1 0.0 4.0 23 92
- 0.835456 0 2 tcp 1040 ------- 1 0.0 4.0 24 93
- 0.836288 0 2 tcp 1040 ------- 1 0.0 4.0 25 95
r 0.8368 2 3 cbr 1000 ------- 0 2.0 3.0 52 82
- 0.83712 0 2 tcp 1040 ------- 1 0.0 4.0 26 96
- 0.837952 0 2 tcp 1040 ------- 1 0.0 4.0 27 97
- 0.838784 0 2 tcp 1040 ------- 1 0.0 4.0 28 98
r 0.8388 0 2 tcp 1040 ------- 1 0.0 4.0 15 84
+ 0.8388 2 3 tcp 1040 ------- 1 0.0 4.0 15 84
- 0.8388 2 3 tcp 1040 ------- 1 0.0 4.0 15 84
- 0.839616 0 2 tcp 1040 ------- 1 0.0 4.0 29 99
r 0.839632 0 2 tcp 1040 ------- 1 0.0 4.0 16 85
+ 0.839632 2 3 tcp 1040 ------- 1 0.0 4.0 16 85
- 0.839632 2 3 tcp 1040 ------- 1 0.0 4.0 16 85
+ 0.84 2 3 cbr 1000 ------- 0 2.0 3.0 55 101
- 0.840448 0 2 tcp 1040 ------- 1 0.0 4.0 30 100
r 0.840464 0 2 tcp 1040 ------- 1 0.0 4.0 17 86
+ 0.840464 2 3 tcp 1040 ------- 1 0.0 4.0 17 86
- 0.840464 2 3 cbr 1000 ------- 0 2.0 3.0 55 101
- 0.841264 2 3 tcp 1040 ------- 1 0.0 4.0 17 86
r 0.841296 0 2 tcp 1040 ------- 1 0.0 4.0 18 87
+ 0.841296 2 3 tcp 1040 ------- 1 0.0 4.0 18 87
- 0.842096 2 3 tcp 1040 ------- 1 0.0 4.0 18 87
r 0.842128 0 2 tcp 1040 ------- 1 0.0 4.0 19 88
+ 0.842128 2 3 tcp 1040 ------- 1 0.0 4.0 19 88
- 0.842928 2 3 tcp 1040 ------- 1 0.0 4.0 19 88
r 0.84296 0 2 tcp 1040 ------- 1 0.0 4.0 20 89
+ 0.84296 2 3 tcp 1040 ------- 1 0.0 4.0 20 89
- 0.84376 2 3 tcp 1040 ------- 1 0.0 4.0 20 89
r 0.843792 0 2 tcp 1040 ------- 1 0.0 4.0 21 90
+ 0.843792 2 3 tcp 1040 ------- 1 0.0 4.0 21 90
- 0.844592 2 3 tcp 1040 ------- 1 0.0 4.0 21 90
r 0.844624 0 2 tcp 1040 ------- 1 0.0 4.0 22 91
+ 0.844624 2 3 tcp 1040 ------- 1 0.0 4.0 22 91
r 0.8448 2 3 cbr 1000 ------- 0 2.0 3.0 53 83
- 0.845424 2 3 tcp 1040 ------- 1 0.0 4.0 22 91
r 0.845456 0 2 tcp 1040 ------- 1 0.0 4.0 23 92
+ 0.845456 2 3 tcp 1040 ------- 1 0.0 4.0 23 92
- 0.846256 2 3 tcp 1040 ------- 1 0.0 4.0 23 92
r 0.846288 0 2 tcp 1040 ------- 1 0.0 4.0 24 93
+ 0.846288 2 3 tcp 1040 ------- 1 0.0 4.0 24 93
- 0.847088 2 3 tcp 1040 ------- 1 0.0 4.0 24 93
r 0.84712 0 2 tcp 1040 ------- 1 0.0 4.0 25 95
+ 0.84712 2 3 tcp 1040 ------- 1 0.0 4.0 25 95
- 0.84792 2 3 tcp 1040 ------- 1 0.0 4.0 25 95
r 0.847952 0 2 tcp 1040 ------- 1 0.0 4.0 26 96
+ 0.847952 2 3 tcp 1040 ------- 1 0.0 4.0 26 96
+ 0.848 2 3 cbr 1000 ------- 0 2.0 3.0 56 102
- 0.848752 2 3 tcp 1040 ------- 1 0.0 4.0 26 96
r 0.848784 0 2 tcp 1040 ------- 1 0.0 4.0 27 97
+ 0.848784 2 3 tcp 1040 ------- 1 0.0 4.0 27 97
- 0.849584 2 3 cbr 1000 ------- 0 2.0 3.0 56 102
r 0.849616 0 2 tcp 1040 ------- 1 0.0 4.0 28 98
+ 0.849616 2 3 tcp 1040 ------- 1 0.0 4.0 28 98
- 0.850384 2 3 tcp 1040 ------- 1 0.0 4.0 27 97
r 0.850448 0 2 tcp 1040 ------- 1 0.0 4.0 29 99
+ 0.850448 2 3 tcp 1040 ------- 1 0.0 4.0 29 99
- 0.851216 2 3 tcp 1040 ------- 1 0.0 4.0 28 98
r 0.85128 0 2 tcp 1040 ------- 1 0.0 4.0 30 100
+ 0.85128 2 3 tcp 1040 ------- 1 0.0 4.0 30 100
- 0.852048 2 3 tcp 1040 ------- 1 0.0 4.0 29 99
r 0.8528 2 3 cbr 1000 ------- 0 2.0 3.0 54 94
- 0.85288 2 3 tcp 1040 ------- 1 0.0 4.0 30 100
+ 0.856 2 3 cbr 1000 ------- 0 2.0 3.0 57 103
- 0.856 2 3 cbr 1000 ------- 0 2.0 3.0 57 103
r 0.859632 2 3 tcp 1040 ------- 1 0.0 4.0 15 84
+ 0.859632 3 4 tcp 1040 ------- 1 0.0 4.0 15 84
- 0.859632 3 4 tcp 1040 ------- 1 0.0 4.0 15 84
r 0.860464 2 3 tcp 1040 ------- 1 0.0 4.0 16 85
+ 0.860464 3 4 tcp 1040 ------- 1 0.0 4.0 16 85
- 0.860464 3 4 tcp 1040 ------- 1 0.0 4.0 16 85
r 0.861264 2 3 cbr 1000 ------- 0 2.0 3.0 55 101
r 0.862096 2 3 tcp 1040 ------- 1 0.0 4.0 17 86
+ 0.862096 3 4 tcp 1040 ------- 1 0.0 4.0 17 86
- 0.862096 3 4 tcp 1040 ------- 1 0.0 4.0 17 86
r 0.862928 2 3 tcp 1040 ------- 1 0.0 4.0 18 87
+ 0.862928 3 4 tcp 1040 ------- 1 0.0 4.0 18 87
- 0.862928 3 4 tcp 1040 ------- 1 0.0 4.0 18 87
r 0.86376 2 3 tcp 1040 ------- 1 0.0 4.0 19 88
+ 0.86376 3 4 tcp 1040 ------- 1 0.0 4.0 19 88
- 0.86376 3 4 tcp 1040 ------- 1 0.0 4.0 19 88
+ 0.864 2 3 cbr 1000 ------- 0 2.0 3.0 58 104
- 0.864 2 3 cbr 1000 ------- 0 2.0 3.0 58 104
r 0.864592 2 3 tcp 1040 ------- 1 0.0 4.0 20 89
+ 0.864592 3 4 tcp 1040 ------- 1 0.0 4.0 20 89
- 0.864592 3 4 tcp 1040 ------- 1 0.0 4.0 20 89
r 0.865424 2 3 tcp 1040 ------- 1 0.0 4.0 21 90
+ 0.865424 3 4 tcp 1040 ------- 1 0.0 4.0 21 90
- 0.865424 3 4 tcp 1040 ------- 1 0.0 4.0 21 90
r 0.866256 2 3 tcp 1040 ------- 1 0.0 4.0 22 91
+ 0.866256 3 4 tcp 1040 ------- 1 0.0 4.0 22 91
- 0.866256 3 4 tcp 1040 ------- 1 0.0 4.0 22 91
r 0.867088 2 3 tcp 1040 ------- 1 0.0 4.0 23 92
+ 0.867088 3 4 tcp 1040 ------- 1 0.0 4.0 23 92
- 0.867088 3 4 tcp 1040 ------- 1 0.0 4.0 23 92
r 0.86792 2 3 tcp 1040 ------- 1 0.0 4.0 24 93
+ 0.86792 3 4 tcp 1040 ------- 1 0.0 4.0 24 93
- 0.86792 3 4 tcp 1040 ------- 1 0.0 4.0 24 93
r 0.868752 2 3 tcp 1040 ------- 1 0.0 4.0 25 95
+ 0.868752 3 4 tcp 1040 ------- 1 0.0 4.0 25 95
- 0.868752 3 4 tcp 1040 ------- 1 0.0 4.0 25 95
r 0.869584 2 3 tcp 1040 ------- 1 0.0 4.0 26 96
+ 0.869584 3 4 tcp 1040 ------- 1 0.0 4.0 26 96
- 0.869584 3 4 tcp 1040 ------- 1 0.0 4.0 26 96
r 0.870384 2 3 cbr 1000 ------- 0 2.0 3.0 56 102
r 0.870464 3 4 tcp 1040 ------- 1 0.0 4.0 15 84
+ 0.870464 4 3 ack 40 ------- 1 4.0 0.0 15 105
- 0.870464 4 3 ack 40 ------- 1 4.0 0.0 15 105
r 0.871216 2 3 tcp 1040 ------- 1 0.0 4.0 27 97
+ 0.871216 3 4 tcp 1040 ------- 1 0.0 4.0 27 97
- 0.871216 3 4 tcp 1040 ------- 1 0.0 4.0 27 97
r 0.871296 3 4 tcp 1040 ------- 1 0.0 4.0 16 85
+ 0.871296 4 3 ack 40 ------- 1 4.0 0.0 16 106
- 0.871296 4 3 ack 40 ------- 1 4.0 0.0 16 106
+ 0.872 2 3 cbr 1000 ------- 0 2.0 3.0 59 107
- 0.872 2 3 cbr 1000 ------- 0 2.0 3.0 59 107
r 0.872048 2 3 tcp 1040 ------- 1 0.0 4.0 28 98
+ 0.872048 3 4 tcp 1040 ------- 1 0.0 4.0 28 98
- 0.872048 3 4 tcp 1040 ------- 1 0.0 4.0 28 98
r 0.87288 2 3 tcp 1040 ------- 1 0.0 4.0 29 99
+ 0.87288 3 4 tcp 1040 ------- 1 0.0 4.0 29 99
- 0.87288 3 4 tcp 1040 ------- 1 0.0 4.0 29 99
r 0.872928 3 4 tcp 1040 ------- 1 0.0 4.0 17 86
+ 0.872928 4 3 ack 40 ------- 1 4.0 0.0 17 108
- 0.872928 4 3 ack 40 ------- 1 4.0 0.0 17 108
r 0.873712 2 3 tcp 1040 ------- 1 0.0 4.0 30 100
+ 0.873712 3 4 tcp 1040 ------- 1 0.0 4.0 30 100
- 0.873712 3 4 tcp 1040 ------- 1 0.0 4.0 30 100
r 0.87376 3 4 tcp 1040 ------- 1 0.0 4.0 18 87
+ 0.87376 4 3 ack 40 ------- 1 4.0 0.0 18 109
- 0.87376 4 3 ack 40 ------- 1 4.0 0.0 18 109
r 0.874592 3 4 tcp 1040 ------- 1 0.0 4.0 19 88
+ 0.874592 4 3 ack 40 ------- 1 4.0 0.0 19 110
- 0.874592 4 3 ack 40 ------- 1 4.0 0.0 19 110
r 0.875424 3 4 tcp 1040 ------- 1 0.0 4.0 20 89
+ 0.875424 4 3 ack 40 ------- 1 4.0 0.0 20 111
- 0.875424 4 3 ack 40 ------- 1 4.0 0.0 20 111
r 0.876256 3 4 tcp 1040 ------- 1 0.0 4.0 21 90
+ 0.876256 4 3 ack 40 ------- 1 4.0 0.0 21 112
- 0.876256 4 3 ack 40 ------- 1 4.0 0.0 21 112
r 0.8768 2 3 cbr 1000 ------- 0 2.0 3.0 57 103
r 0.877088 3 4 tcp 1040 ------- 1 0.0 4.0 22 91
+ 0.877088 4 3 ack 40 ------- 1 4.0 0.0 22 113
- 0.877088 4 3 ack 40 ------- 1 4.0 0.0 22 113
r 0.87792 3 4 tcp 1040 ------- 1 0.0 4.0 23 92
+ 0.87792 4 3 ack 40 ------- 1 4.0 0.0 23 114
- 0.87792 4 3 ack 40 ------- 1 4.0 0.0 23 114
r 0.878752 3 4 tcp 1040 ------- 1 0.0 4.0 24 93
+ 0.878752 4 3 ack 40 ------- 1 4.0 0.0 24 115
- 0.878752 4 3 ack 40 ------- 1 4.0 0.0 24 115
r 0.879584 3 4 tcp 1040 ------- 1 0.0 4.0 25 95
+ 0.879584 4 3 ack 40 ------- 1 4.0 0.0 25 116
- 0.879584 4 3 ack 40 ------- 1 4.0 0.0 25 116
+ 0.88 2 3 cbr 1000 ------- 0 2.0 3.0 60 117
- 0.88 2 3 cbr 1000 ------- 0 2.0 3.0 60 117
r 0.880416 3 4 tcp 1040 ------- 1 0.0 4.0 26 96
+ 0.880416 4 3 ack 40 ------- 1 4.0 0.0 26 118
- 0.880416 4 3 ack 40 ------- 1 4.0 0.0 26 118
r 0.880496 4 3 ack 40 ------- 1 4.0 0.0 15 105
+ 0.880496 3 2 ack 40 ------- 1 4.0 0.0 15 105
- 0.880496 3 2 ack 40 ------- 1 4.0 0.0 15 105
r 0.881328 4 3 ack 40 ------- 1 4.0 0.0 16 106
+ 0.881328 3 2 ack 40 ------- 1 4.0 0.0 16 106
- 0.881328 3 2 ack 40 ------- 1 4.0 0.0 16 106
r 0.882048 3 4 tcp 1040 ------- 1 0.0 4.0 27 97
+ 0.882048 4 3 ack 40 ------- 1 4.0 0.0 27 119
- 0.882048 4 3 ack 40 ------- 1 4.0 0.0 27 119
r 0.88288 3 4 tcp 1040 ------- 1 0.0 4.0 28 98
+ 0.88288 4 3 ack 40 ------- 1 4.0 0.0 28 120
- 0.88288 4 3 ack 40 ------- 1 4.0 0.0 28 120
r 0.88296 4 3 ack 40 ------- 1 4.0 0.0 17 108
+ 0.88296 3 2 ack 40 ------- 1 4.0 0.0 17 108
- 0.88296 3 2 ack 40 ------- 1 4.0 0.0 17 108
r 0.883712 3 4 tcp 1040 ------- 1 0.0 4.0 29 99
+ 0.883712 4 3 ack 40 ------- 1 4.0 0.0 29 121
- 0.883712 4 3 ack 40 ------- 1 4.0 0.0 29 121
r 0.883792 4 3 ack 40 ------- 1 4.0 0.0 18 109
+ 0.883792 3 2 ack 40 ------- 1 4.0 0.0 18 109
- 0.883792 3 2 ack 40 ------- 1 4.0 0.0 18 109
r 0.884544 3 4 tcp 1040 ------- 1 0.0 4.0 30 100
+ 0.884544 4 3 ack 40 ------- 1 4.0 0.0 30 122
- 0.884544 4 3 ack 40 ------- 1 4.0 0.0 30 122
r 0.884624 4 3 ack 40 ------- 1 4.0 0.0 19 110
+ 0.884624 3 2 ack 40 ------- 1 4.0 0.0 19 110
- 0.884624 3 2 ack 40 ------- 1 4.0 0.0 19 110
r 0.8848 2 3 cbr 1000 ------- 0 2.0 3.0 58 104
r 0.885456 4 3 ack 40 ------- 1 4.0 0.0 20 111
+ 0.885456 3 2 ack 40 ------- 1 4.0 0.0 20 111
- 0.885456 3 2 ack 40 ------- 1 4.0 0.0 20 111
r 0.886288 4 3 ack 40 ------- 1 4.0 0.0 21 112
+ 0.886288 3 2 ack 40 ------- 1 4.0 0.0 21 112
- 0.886288 3 2 ack 40 ------- 1 4.0 0.0 21 112
r 0.88712 4 3 ack 40 ------- 1 4.0 0.0 22 113