+ 0.4 2 3 cbr 1000 ------- 0 2.0 3.0 0 0
- 0.4 2 3 cbr 1000 ------- 0 2.0 3.0 0 0
+ 0.401 2 3 cbr 1000 ------- 0 2.0 3.0 1 1
- 0.401 2 3 cbr 1000 ------- 0 2.0 3.0 1 1
+ 0.402 2 3 cbr 1000 ------- 0 2.0 3.0 2 2
- 0.402 2 3 cbr 1000 ------- 0 2.0 3.0 2 2
+ 0.403 2 3 cbr 1000 ------- 0 2.0 3.0 3 3
- 0.403 2 3 cbr 1000 ------- 0 2.0 3.0 3 3
+ 0.404 2 3 cbr 1000 ------- 0 2.0 3.0 4 4
- 0.404 2 3 cbr 1000 ------- 0 2.0 3.0 4 4
+ 0.405 2 3 cbr 1000 ------- 0 2.0 3.0 5 5
- 0.405 2 3 cbr 1000 ------- 0 2.0 3.0 5 5
+ 0.406 2 3 cbr 1000 ------- 0 2.0 3.0 6 6
- 0.406 2 3 cbr 1000 ------- 0 2.0 3.0 6 6
+ 0.407 2 3 cbr 1000 ------- 0 2.0 3.0 7 7
- 0.407 2 3 cbr 1000 ------- 0 2.0 3.0 7 7
+ 0.408 2 3 cbr 1000 ------- 0 2.0 3.0 8 8
- 0.408 2 3 cbr 1000 ------- 0 2.0 3.0 8 8
+ 0.409 2 3 cbr 1000 ------- 0 2.0 3.0 9 9
- 0.409 2 3 cbr 1000 ------- 0 2.0 3.0 9 9
+ 0.41 2 3 cbr 1000 ------- 0 2.0 3.0 10 10
- 0.41 2 3 cbr 1000 ------- 0 2.0 3.0 10 10
+ 0.411 2 3 cbr 1000 ------- 0 2.0 3.0 11 11
- 0.411 2 3 cbr 1000 ------- 0 2.0 3.0 11 11
+ 0.412 2 3 cbr 1000 ------- 0 2.0 3.0 12 12
- 0.412 2 3 cbr 1000 ------- 0 2.0 3.0 12 12
+ 0.413 2 3 cbr 1000 ------- 0 2.0 3.0 13 13
- 0.413 2 3 cbr 1000 ------- 0 2.0 3.0 13 13
+ 0.414 2 3 cbr 1000 ------- 0 2.0 3.0 14 14
- 0.414 2 3 cbr 1000 ------- 0 2.0 3.0 14 14
+ 0.415 2 3 cbr 1000 ------- 0 2.0 3.0 15 15
- 0.415 2 3 cbr 1000 ------- 0 2.0 3.0 15 15
+ 0.416 2 3 cbr 1000 ------- 0 2.0 3.0 16 16
- 0.416 2 3 cbr 1000 ------- 0 2.0 3.0 16 16
+ 0.417 2 3 cbr 1000 ------- 0 2.0 3.0 17 17
- 0.417 2 3 cbr 1000 ------- 0 2.0 3.0 17 17
+ 0.418 2 3 cbr 1000 ------- 0 2.0 3.0 18 18
- 0.418 2 3 cbr 1000 ------- 0 2.0 3.0 18 18
+ 0.419 2 3 cbr 1000 ------- 0 2.0 3.0 19 19
- 0.419 2 3 cbr 1000 ------- 0 2.0 3.0 19 19
+ 0.42 2 3 cbr 1000 ------- 0 2.0 3.0 20 20
- 0.42 2 3 cbr 1000 ------- 0 2.0 3.0 20 20
r 0.4208 2 3 cbr 1000 ------- 0 2.0 3.0 0 0
+ 0.421 2 3 cbr 1000 ------- 0 2.0 3.0 21 21
- 0.421 2 3 cbr 1000 ------- 0 2.0 3.0 21 21
r 0.4218 2 3 cbr 1000 ------- 0 2.0 3.0 1 1
+ 0.422 2 3 cbr 1000 ------- 0 2.0 3.0 22 22
- 0.422 2 3 cbr 1000 ------- 0 2.0 3.0 22 22
r 0.4228 2 3 cbr 1000 ------- 0 2.0 3.0 2 2
+ 0.423 2 3 cbr 1000 ------- 0 2.0 3.0 23 23
- 0.423 2 3 cbr 1000 ------- 0 2.0 3.0 23 23
r 0.4238 2 3 cbr 1000 ------- 0 2.0 3.0 3 3
+ 0.424 2 3 cbr 1000 ------- 0 2.0 3.0 24 24
- 0.424 2 3 cbr 1000 ------- 0 2.0 3.0 24 24
r 0.4248 2 3 cbr 1000 ------- 0 2.0 3.0 4 4
+ 0.425 2 3 cbr 1000 ------- 0 2.0 3.0 25 25
- 0.425 2 3 cbr 1000 ------- 0 2.0 3.0 25 25
r 0.4258 2 3 cbr 1000 ------- 0 2.0 3.0 5 5
+ 0.426 2 3 cbr 1000 ------- 0 2.0 3.0 26 26
- 0.426 2 3 cbr 1000 ------- 0 2.0 3.0 26 26
r 0.4268 2 3 cbr 1000 ------- 0 2.0 3.0 6 6
+ 0.427 2 3 cbr 1000 ------- 0 2.0 3.0 27 27
- 0.427 2 3 cbr 1000 ------- 0 2.0 3.0 27 27
r 0.4278 2 3 cbr 1000 ------- 0 2.0 3.0 7 7
+ 0.428 2 3 cbr 1000 ------- 0 2.0 3.0 28 28
- 0.428 2 3 cbr 1000 ------- 0 2.0 3.0 28 28
r 0.4288 2 3 cbr 1000 ------- 0 2.0 3.0 8 8
+ 0.429 2 3 cbr 1000 ------- 0 2.0 3.0 29 29
- 0.429 2 3 cbr 1000 ------- 0 2.0 3.0 29 29
r 0.4298 2 3 cbr 1000 ------- 0 2.0 3.0 9 9
+ 0.43 2 3 cbr 1000 ------- 0 2.0 3.0 30 30
- 0.43 2 3 cbr 1000 ------- 0 2.0 3.0 30 30
r 0.4308 2 3 cbr 1000 ------- 0 2.0 3.0 10 10
+ 0.431 2 3 cbr 1000 ------- 0 2.0 3.0 31 31
- 0.431 2 3 cbr 1000 ------- 0 2.0 3.0 31 31
r 0.4318 2 3 cbr 1000 ------- 0 2.0 3.0 11 11
+ 0.432 2 3 cbr 1000 ------- 0 2.0 3.0 32 32
- 0.432 2 3 cbr 1000 ------- 0 2.0 3.0 32 32
r 0.4328 2 3 cbr 1000 ------- 0 2.0 3.0 12 12
+ 0.433 2 3 cbr 1000 ------- 0 2.0 3.0 33 33
- 0.433 2 3 cbr 1000 ------- 0 2.0 3.0 33 33
r 0.4338 2 3 cbr 1000 ------- 0 2.0 3.0 13 13
+ 0.434 2 3 cbr 1000 ------- 0 2.0 3.0 34 34
- 0.434 2 3 cbr 1000 ------- 0 2.0 3.0 34 34
r 0.4348 2 3 cbr 1000 ------- 0 2.0 3.0 14 14
+ 0.435 2 3 cbr 1000 ------- 0 2.0 3.0 35 35
- 0.435 2 3 cbr 1000 ------- 0 2.0 3.0 35 35
r 0.4358 2 3 cbr 1000 ------- 0 2.0 3.0 15 15
+ 0.436 2 3 cbr 1000 ------- 0 2.0 3.0 36 36
- 0.436 2 3 cbr 1000 ------- 0 2.0 3.0 36 36
r 0.4368 2 3 cbr 1000 ------- 0 2.0 3.0 16 16
+ 0.437 2 3 cbr 1000 ------- 0 2.0 3.0 37 37
- 0.437 2 3 cbr 1000 ------- 0 2.0 3.0 37 37
r 0.4378 2 3 cbr 1000 ------- 0 2.0 3.0 17 17
+ 0.438 2 3 cbr 1000 ------- 0 2.0 3.0 38 38
- 0.438 2 3 cbr 1000 ------- 0 2.0 3.0 38 38
r 0.4388 2 3 cbr 1000 ------- 0 2.0 3.0 18 18
+ 0.439 2 3 cbr 1000 ------- 0 2.0 3.0 39 39
- 0.439 2 3 cbr 1000 ------- 0 2.0 3.0 39 39
r 0.4398 2 3 cbr 1000 ------- 0 2.0 3.0 19 19
+ 0.44 2 3 cbr 1000 ------- 0 2.0 3.0 40 40
- 0.44 2 3 cbr 1000 ------- 0 2.0 3.0 40 40
r 0.4408 2 3 cbr 1000 ------- 0 2.0 3.0 20 20
+ 0.441 2 3 cbr 1000 ------- 0 2.0 3.0 41 41
- 0.441 2 3 cbr 1000 ------- 0 2.0 3.0 41 41
r 0.4418 2 3 cbr 1000 ------- 0 2.0 3.0 21 21
+ 0.442 2 3 cbr 1000 ------- 0 2.0 3.0 42 42
- 0.442 2 3 cbr 1000 ------- 0 2.0 3.0 42 42
r 0.4428 2 3 cbr 1000 ------- 0 2.0 3.0 22 22
+ 0.443 2 3 cbr 1000 ------- 0 2.0 3.0 43 43
- 0.443 2 3 cbr 1000 ------- 0 2.0 3.0 43 43
r 0.4438 2 3 cbr 1000 ------- 0 2.0 3.0 23 23
+ 0.444 2 3 cbr 1000 ------- 0 2.0 3.0 44 44
- 0.444 2 3 cbr 1000 ------- 0 2.0 3.0 44 44
r 0.4448 2 3 cbr 1000 ------- 0 2.0 3.0 24 24
+ 0.445 2 3 cbr 1000 ------- 0 2.0 3.0 45 45
- 0.445 2 3 cbr 1000 ------- 0 2.0 3.0 45 45
r 0.4458 2 3 cbr 1000 ------- 0 2.0 3.0 25 25
+ 0.446 2 3 cbr 1000 ------- 0 2.0 3.0 46 46
- 0.446 2 3 cbr 1000 ------- 0 2.0 3.0 46 46
r 0.4468 2 3 cbr 1000 ------- 0 2.0 3.0 26 26
+ 0.447 2 3 cbr 1000 ------- 0 2.0 3.0 47 47
- 0.447 2 3 cbr 1000 ------- 0 2.0 3.0 47 47
r 0.4478 2 3 cbr 1000 ------- 0 2.0 3.0 27 27
+ 0.448 2 3 cbr 1000 ------- 0 2.0 3.0 48 48
- 0.448 2 3 cbr 1000 ------- 0 2.0 3.0 48 48
r 0.4488 2 3 cbr 1000 ------- 0 2.0 3.0 28 28
+ 0.449 2 3 cbr 1000 ------- 0 2.0 3.0 49 49
- 0.449 2 3 cbr 1000 ------- 0 2.0 3.0 49 49
r 0.4498 2 3 cbr 1000 ------- 0 2.0 3.0 29 29
+ 0.45 2 3 cbr 1000 ------- 0 2.0 3.0 50 50
- 0.45 2 3 cbr 1000 ------- 0 2.0 3.0 50 50
r 0.4508 2 3 cbr 1000 ------- 0 2.0 3.0 30 30
+ 0.451 2 3 cbr 1000 ------- 0 2.0 3.0 51 51
- 0.451 2 3 cbr 1000 ------- 0 2.0 3.0 51 51
r 0.4518 2 3 cbr 1000 ------- 0 2.0 3.0 31 31
+ 0.452 2 3 cbr 1000 ------- 0 2.0 3.0 52 52
- 0.452 2 3 cbr 1000 ------- 0 2.0 3.0 52 52
r 0.4528 2 3 cbr 1000 ------- 0 2.0 3.0 32 32
+ 0.453 2 3 cbr 1000 ------- 0 2.0 3.0 53 53
- 0.453 2 3 cbr 1000 ------- 0 2.0 3.0 53 53
r 0.4538 2 3 cbr 1000 ------- 0 2.0 3.0 33 33
+ 0.454 2 3 cbr 1000 ------- 0 2.0 3.0 54 54
- 0.454 2 3 cbr 1000 ------- 0 2.0 3.0 54 54
r 0.4548 2 3 cbr 1000 ------- 0 2.0 3.0 34 34
+ 0.455 2 3 cbr 1000 ------- 0 2.0 3.0 55 55
- 0.455 2 3 cbr 1000 ------- 0 2.0 3.0 55 55
r 0.4558 2 3 cbr 1000 ------- 0 2.0 3.0 35 35
+ 0.456 2 3 cbr 1000 ------- 0 2.0 3.0 56 56
- 0.456 2 3 cbr 1000 ------- 0 2.0 3.0 56 56
r 0.4568 2 3 cbr 1000 ------- 0 2.0 3.0 36 36
+ 0.457 2 3 cbr 1000 ------- 0 2.0 3.0 57 57
- 0.457 2 3 cbr 1000 ------- 0 2.0 3.0 57 57
r 0.4578 2 3 cbr 1000 ------- 0 2.0 3.0 37 37
+ 0.458 2 3 cbr 1000 ------- 0 2.0 3.0 58 58
- 0.458 2 3 cbr 1000 ------- 0 2.0 3.0 58 58
r 0.4588 2 3 cbr 1000 ------- 0 2.0 3.0 38 38
+ 0.459 2 3 cbr 1000 ------- 0 2.0 3.0 59 59
- 0.459 2 3 cbr 1000 ------- 0 2.0 3.0 59 59
r 0.4598 2 3 cbr 1000 ------- 0 2.0 3.0 39 39
+ 0.46 2 3 cbr 1000 ------- 0 2.0 3.0 60 60
- 0.46 2 3 cbr 1000 ------- 0 2.0 3.0 60 60
r 0.4608 2 3 cbr 1000 ------- 0 2.0 3.0 40 40
+ 0.461 2 3 cbr 1000 ------- 0 2.0 3.0 61 61
- 0.461 2 3 cbr 1000 ------- 0 2.0 3.0 61 61
r 0.4618 2 3 cbr 1000 ------- 0 2.0 3.0 41 41
+ 0.462 2 3 cbr 1000 ------- 0 2.0 3.0 62 62
- 0.462 2 3 cbr 1000 ------- 0 2.0 3.0 62 62
r 0.4628 2 3 cbr 1000 ------- 0 2.0 3.0 42 42
+ 0.463 2 3 cbr 1000 ------- 0 2.0 3.0 63 63
- 0.463 2 3 cbr 1000 ------- 0 2.0 3.0 63 63
r 0.4638 2 3 cbr 1000 ------- 0 2.0 3.0 43 43
+ 0.464 2 3 cbr 1000 ------- 0 2.0 3.0 64 64
- 0.464 2 3 cbr 1000 ------- 0 2.0 3.0 64 64
r 0.4648 2 3 cbr 1000 ------- 0 2.0 3.0 44 44
+ 0.465 2 3 cbr 1000 ------- 0 2.0 3.0 65 65
- 0.465 2 3 cbr 1000 ------- 0 2.0 3.0 65 65
r 0.4658 2 3 cbr 1000 ------- 0 2.0 3.0 45 45
+ 0.466 2 3 cbr 1000 ------- 0 2.0 3.0 66 66
- 0.466 2 3 cbr 1000 ------- 0 2.0 3.0 66 66
r 0.4668 2 3 cbr 1000 ------- 0 2.0 3.0 46 46
+ 0.467 2 3 cbr 1000 ------- 0 2.0 3.0 67 67
- 0.467 2 3 cbr 1000 ------- 0 2.0 3.0 67 67
r 0.4678 2 3 cbr 1000 ------- 0 2.0 3.0 47 47
+ 0.468 2 3 cbr 1000 ------- 0 2.0 3.0 68 68
- 0.468 2 3 cbr 1000 ------- 0 2.0 3.0 68 68
r 0.4688 2 3 cbr 1000 ------- 0 2.0 3.0 48 48
+ 0.469 2 3 cbr 1000 ------- 0 2.0 3.0 69 69
- 0.469 2 3 cbr 1000 ------- 0 2.0 3.0 69 69
r 0.4698 2 3 cbr 1000 ------- 0 2.0 3.0 49 49
+ 0.47 2 3 cbr 1000 ------- 0 2.0 3.0 70 70
- 0.47 2 3 cbr 1000 ------- 0 2.0 3.0 70 70
r 0.4708 2 3 cbr 1000 ------- 0 2.0 3.0 50 50
+ 0.471 2 3 cbr 1000 ------- 0 2.0 3.0 71 71
- 0.471 2 3 cbr 1000 ------- 0 2.0 3.0 71 71
r 0.4718 2 3 cbr 1000 ------- 0 2.0 3.0 51 51
+ 0.472 2 3 cbr 1000 ------- 0 2.0 3.0 72 72
- 0.472 2 3 cbr 1000 ------- 0 2.0 3.0 72 72
r 0.4728 2 3 cbr 1000 ------- 0 2.0 3.0 52 52
+ 0.473 2 3 cbr 1000 ------- 0 2.0 3.0 73 73
- 0.473 2 3 cbr 1000 ------- 0 2.0 3.0 73 73
r 0.4738 2 3 cbr 1000 ------- 0 2.0 3.0 53 53
+ 0.474 2 3 cbr 1000 ------- 0 2.0 3.0 74 74
- 0.474 2 3 cbr 1000 ------- 0 2.0 3.0 74 74
r 0.4748 2 3 cbr 1000 ------- 0 2.0 3.0 54 54
+ 0.475 2 3 cbr 1000 ------- 0 2.0 3.0 75 75
- 0.475 2 3 cbr 1000 ------- 0 2.0 3.0 75 75
r 0.4758 2 3 cbr 1000 ------- 0 2.0 3.0 55 55
+ 0.476 2 3 cbr 1000 ------- 0 2.0 3.0 76 76
- 0.476 2 3 cbr 1000 ------- 0 2.0 3.0 76 76
r 0.4768 2 3 cbr 1000 ------- 0 2.0 3.0 56 56
+ 0.477 2 3 cbr 1000 ------- 0 2.0 3.0 77 77
- 0.477 2 3 cbr 1000 ------- 0 2.0 3.0 77 77
r 0.4778 2 3 cbr 1000 ------- 0 2.0 3.0 57 57
+ 0.478 2 3 cbr 1000 ------- 0 2.0 3.0 78 78
- 0.478 2 3 cbr 1000 ------- 0 2.0 3.0 78 78
r 0.4788 2 3 cbr 1000 ------- 0 2.0 3.0 58 58
+ 0.479 2 3 cbr 1000 ------- 0 2.0 3.0 79 79
- 0.479 2 3 cbr 1000 ------- 0 2.0 3.0 79 79
r 0.4798 2 3 cbr 1000 ------- 0 2.0 3.0 59 59
+ 0.48 2 3 cbr 1000 ------- 0 2.0 3.0 80 80
- 0.48 2 3 cbr 1000 ------- 0 2.0 3.0 80 80
r 0.4808 2 3 cbr 1000 ------- 0 2.0 3.0 60 60
+ 0.481 2 3 cbr 1000 ------- 0 2.0 3.0 81 81
- 0.481 2 3 cbr 1000 ------- 0 2.0 3.0 81 81
r 0.4818 2 3 cbr 1000 ------- 0 2.0 3.0 61 61
+ 0.482 2 3 cbr 1000 ------- 0 2.0 3.0 82 82
- 0.482 2 3 cbr 1000 ------- 0 2.0 3.0 82 82
r 0.4828 2 3 cbr 1000 ------- 0 2.0 3.0 62 62
+ 0.483 2 3 cbr 1000 ------- 0 2.0 3.0 83 83
- 0.483 2 3 cbr 1000 ------- 0 2.0 3.0 83 83
r 0.4838 2 3 cbr 1000 ------- 0 2.0 3.0 63 63
+ 0.484 2 3 cbr 1000 ------- 0 2.0 3.0 84 84
- 0.484 2 3 cbr 1000 ------- 0 2.0 3.0 84 84
r 0.4848 2 3 cbr 1000 ------- 0 2.0 3.0 64 64
+ 0.485 2 3 cbr 1000 ------- 0 2.0 3.0 85 85
- 0.485 2 3 cbr 1000 ------- 0 2.0 3.0 85 85
r 0.4858 2 3 cbr 1000 ------- 0 2.0 3.0 65 65
+ 0.486 2 3 cbr 1000 ------- 0 2.0 3.0 86 86
- 0.486 2 3 cbr 1000 ------- 0 2.0 3.0 86 86
r 0.4868 2 3 cbr 1000 ------- 0 2.0 3.0 66 66
+ 0.487 2 3 cbr 1000 ------- 0 2.0 3.0 87 87
- 0.487 2 3 cbr 1000 ------- 0 2.0 3.0 87 87
r 0.4878 2 3 cbr 1000 ------- 0 2.0 3.0 67 67
+ 0.488 2 3 cbr 1000 ------- 0 2.0 3.0 88 88
- 0.488 2 3 cbr 1000 ------- 0 2.0 3.0 88 88
r 0.4888 2 3 cbr 1000 ------- 0 2.0 3.0 68 68
+ 0.489 2 3 cbr 1000 ------- 0 2.0 3.0 89 89
- 0.489 2 3 cbr 1000 ------- 0 2.0 3.0 89 89
r 0.4898 2 3 cbr 1000 ------- 0 2.0 3.0 69 69
+ 0.49 2 3 cbr 1000 ------- 0 2.0 3.0 90 90
- 0.49 2 3 cbr 1000 ------- 0 2.0 3.0 90 90
r 0.4908 2 3 cbr 1000 ------- 0 2.0 3.0 70 70
+ 0.491 2 3 cbr 1000 ------- 0 2.0 3.0 91 91
- 0.491 2 3 cbr 1000 ------- 0 2.0 3.0 91 91
r 0.4918 2 3 cbr 1000 ------- 0 2.0 3.0 71 71
+ 0.492 2 3 cbr 1000 ------- 0 2.0 3.0 92 92
- 0.492 2 3 cbr 1000 ------- 0 2.0 3.0 92 92
r 0.4928 2 3 cbr 1000 ------- 0 2.0 3.0 72 72
+ 0.493 2 3 cbr 1000 ------- 0 2.0 3.0 93 93
- 0.493 2 3 cbr 1000 ------- 0 2.0 3.0 93 93
r 0.4938 2 3 cbr 1000 ------- 0 2.0 3.0 73 73
+ 0.494 2 3 cbr 1000 ------- 0 2.0 3.0 94 94
- 0.494 2 3 cbr 1000 ------- 0 2.0 3.0 94 94
r 0.4948 2 3 cbr 1000 ------- 0 2.0 3.0 74 74
+ 0.495 2 3 cbr 1000 ------- 0 2.0 3.0 95 95
- 0.495 2 3 cbr 1000 ------- 0 2.0 3.0 95 95
r 0.4958 2 3 cbr 1000 ------- 0 2.0 3.0 75 75
+ 0.496 2 3 cbr 1000 ------- 0 2.0 3.0 96 96
- 0.496 2 3 cbr 1000 ------- 0 2.0 3.0 96 96
r 0.4968 2 3 cbr 1000 ------- 0 2.0 3.0 76 76
+ 0.497 2 3 cbr 1000 ------- 0 2.0 3.0 97 97
- 0.497 2 3 cbr 1000 ------- 0 2.0 3.0 97 97
r 0.4978 2 3 cbr 1000 ------- 0 2.0 3.0 77 77
+ 0.498 2 3 cbr 1000 ------- 0 2.0 3.0 98 98
- 0.498 2 3 cbr 1000 ------- 0 2.0 3.0 98 98
r 0.4988 2 3 cbr 1000 ------- 0 2.0 3.0 78 78
+ 0.499 2 3 cbr 1000 ------- 0 2.0 3.0 99 99
- 0.499 2 3 cbr 1000 ------- 0 2.0 3.0 99 99
r 0.4998 2 3 cbr 1000 ------- 0 2.0 3.0 79 79
+ 0.5 0 2 tcp 40 ------- 1 0.0 4.0 0 100
- 0.5 0 2 tcp 40 ------- 1 0.0 4.0 0 100
+ 0.5 2 3 cbr 1000 ------- 0 2.0 3.0 100 101
- 0.5 2 3 cbr 1000 ------- 0 2.0 3.0 100 101
r 0.5008 2 3 cbr 1000 ------- 0 2.0 3.0 80 80
+ 0.501 2 3 cbr 1000 ------- 0 2.0 3.0 101 102
- 0.501 2 3 cbr 1000 ------- 0 2.0 3.0 101 102
r 0.5018 2 3 cbr 1000 ------- 0 2.0 3.0 81 81
+ 0.502 2 3 cbr 1000 ------- 0 2.0 3.0 102 103
- 0.502 2 3 cbr 1000 ------- 0 2.0 3.0 102 103
r 0.5028 2 3 cbr 1000 ------- 0 2.0 3.0 82 82
+ 0.503 2 3 cbr 1000 ------- 0 2.0 3.0 103 104
- 0.503 2 3 cbr 1000 ------- 0 2.0 3.0 103 104
r 0.5038 2 3 cbr 1000 ------- 0 2.0 3.0 83 83
+ 0.504 2 3 cbr 1000 ------- 0 2.0 3.0 104 105
- 0.504 2 3 cbr 1000 ------- 0 2.0 3.0 104 105
r 0.5048 2 3 cbr 1000 ------- 0 2.0 3.0 84 84
+ 0.505 2 3 cbr 1000 ------- 0 2.0 3.0 105 106
- 0.505 2 3 cbr 1000 ------- 0 2.0 3.0 105 106
r 0.5058 2 3 cbr 1000 ------- 0 2.0 3.0 85 85
+ 0.506 2 3 cbr 1000 ------- 0 2.0 3.0 106 107
- 0.506 2 3 cbr 1000 ------- 0 2.0 3.0 106 107
r 0.5068 2 3 cbr 1000 ------- 0 2.0 3.0 86 86
+ 0.507 2 3 cbr 1000 ------- 0 2.0 3.0 107 108
- 0.507 2 3 cbr 1000 ------- 0 2.0 3.0 107 108
r 0.5078 2 3 cbr 1000 ------- 0 2.0 3.0 87 87
+ 0.508 2 3 cbr 1000 ------- 0 2.0 3.0 108 109
- 0.508 2 3 cbr 1000 ------- 0 2.0 3.0 108 109
r 0.5088 2 3 cbr 1000 ------- 0 2.0 3.0 88 88
+ 0.509 2 3 cbr 1000 ------- 0 2.0 3.0 109 110
- 0.509 2 3 cbr 1000 ------- 0 2.0 3.0 109 110
r 0.5098 2 3 cbr 1000 ------- 0 2.0 3.0 89 89
+ 0.51 2 3 cbr 1000 ------- 0 2.0 3.0 110 111
- 0.51 2 3 cbr 1000 ------- 0 2.0 3.0 110 111
r 0.510032 0 2 tcp 40 ------- 1 0.0 4.0 0 100
+ 0.510032 2 3 tcp 40 ------- 1 0.0 4.0 0 100
r 0.5108 2 3 cbr 1000 ------- 0 2.0 3.0 90 90
- 0.5108 2 3 tcp 40 ------- 1 0.0 4.0 0 100
+ 0.511 2 3 cbr 1000 ------- 0 2.0 3.0 111 112
- 0.511 2 3 cbr 1000 ------- 0 2.0 3.0 111 112
r 0.5118 2 3 cbr 1000 ------- 0 2.0 3.0 91 91
+ 0.512 2 3 cbr 1000 ------- 0 2.0 3.0 112 113
- 0.512 2 3 cbr 1000 ------- 0 2.0 3.0 112 113
r 0.5128 2 3 cbr 1000 ------- 0 2.0 3.0 92 92
+ 0.513 2 3 cbr 1000 ------- 0 2.0 3.0 113 114
- 0.513 2 3 cbr 1000 ------- 0 2.0 3.0 113 114
r 0.5138 2 3 cbr 1000 ------- 0 2.0 3.0 93 93
+ 0.514 2 3 cbr 1000 ------- 0 2.0 3.0 114 115
- 0.514 2 3 cbr 1000 ------- 0 2.0 3.0 114 115
r 0.5148 2 3 cbr 1000 ------- 0 2.0 3.0 94 94
+ 0.515 2 3 cbr 1000 ------- 0 2.0 3.0 115 116
- 0.515 2 3 cbr 1000 ------- 0 2.0 3.0 115 116
r 0.5158 2 3 cbr 1000 ------- 0 2.0 3.0 95 95
+ 0.516 2 3 cbr 1000 ------- 0 2.0 3.0 116 117
- 0.516 2 3 cbr 1000 ------- 0 2.0 3.0 116 117
r 0.5168 2 3 cbr 1000 ------- 0 2.0 3.0 96 96
+ 0.517 2 3 cbr 1000 ------- 0 2.0 3.0 117 118
- 0.517 2 3 cbr 1000 ------- 0 2.0 3.0 117 118
r 0.5178 2 3 cbr 1000 ------- 0 2.0 3.0 97 97
+ 0.518 2 3 cbr 1000 ------- 0 2.0 3.0 118 119
- 0.518 2 3 cbr 1000 ------- 0 2.0 3.0 118 119
r 0.5188 2 3 cbr 1000 ------- 0 2.0 3.0 98 98
+ 0.519 2 3 cbr 1000 ------- 0 2.0 3.0 119 120
- 0.519 2 3 cbr 1000 ------- 0 2.0 3.0 119 120
r 0.5198 2 3 cbr 1000 ------- 0 2.0 3.0 99 99
+ 0.52 2 3 cbr 1000 ------- 0 2.0 3.0 120 121
- 0.52 2 3 cbr 1000 ------- 0 2.0 3.0 120 121
r 0.5208 2 3 cbr 1000 ------- 0 2.0 3.0 100 101
+ 0.521 2 3 cbr 1000 ------- 0 2.0 3.0 121 122
- 0.521 2 3 cbr 1000 ------- 0 2.0 3.0 121 122
r 0.5218 2 3 cbr 1000 ------- 0 2.0 3.0 101 102
+ 0.522 2 3 cbr 1000 ------- 0 2.0 3.0 122 123
- 0.522 2 3 cbr 1000 ------- 0 2.0 3.0 122 123
r 0.5228 2 3 cbr 1000 ------- 0 2.0 3.0 102 103
+ 0.523 2 3 cbr 1000 ------- 0 2.0 3.0 123 124
- 0.523 2 3 cbr 1000 ------- 0 2.0 3.0 123 124
r 0.5238 2 3 cbr 1000 ------- 0 2.0 3.0 103 104
+ 0.524 2 3 cbr 1000 ------- 0 2.0 3.0 124 125
- 0.524 2 3 cbr 1000 ------- 0 2.0 3.0 124 125
r 0.5248 2 3 cbr 1000 ------- 0 2.0 3.0 104 105
+ 0.525 2 3 cbr 1000 ------- 0 2.0 3.0 125 126
- 0.525 2 3 cbr 1000 ------- 0 2.0 3.0 125 126
r 0.5258 2 3 cbr 1000 ------- 0 2.0 3.0 105 106
+ 0.526 2 3 cbr 1000 ------- 0 2.0 3.0 126 127
- 0.526 2 3 cbr 1000 ------- 0 2.0 3.0 126 127
r 0.5268 2 3 cbr 1000 ------- 0 2.0 3.0 106 107
+ 0.527 2 3 cbr 1000 ------- 0 2.0 3.0 127 128
- 0.527 2 3 cbr 1000 ------- 0 2.0 3.0 127 128
r 0.5278 2 3 cbr 1000 ------- 0 2.0 3.0 107 108
+ 0.528 2 3 cbr 1000 ------- 0 2.0 3.0 128 129
- 0.528 2 3 cbr 1000 ------- 0 2.0 3.0 128 129
r 0.5288 2 3 cbr 1000 ------- 0 2.0 3.0 108 109
+ 0.529 2 3 cbr 1000 ------- 0 2.0 3.0 129 130
- 0.529 2 3 cbr 1000 ------- 0 2.0 3.0 129 130
r 0.5298 2 3 cbr 1000 ------- 0 2.0 3.0 109 110
+ 0.53 2 3 cbr 1000 ------- 0 2.0 3.0 130 131
- 0.53 2 3 cbr 1000 ------- 0 2.0 3.0 130 131
r 0.5308 2 3 cbr 1000 ------- 0 2.0 3.0 110 111
r 0.530832 2 3 tcp 40 ------- 1 0.0 4.0 0 100
+ 0.530832 3 4 tcp 40 ------- 1 0.0 4.0 0 100
- 0.530832 3 4 tcp 40 ------- 1 0.0 4.0 0 100
+ 0.531 2 3 cbr 1000 ------- 0 2.0 3.0 131 132
- 0.531 2 3 cbr 1000 ------- 0 2.0 3.0 131 132
r 0.5318 2 3 cbr 1000 ------- 0 2.0 3.0 111 112
+ 0.532 2 3 cbr 1000 ------- 0 2.0 3.0 132 133
- 0.532 2 3 cbr 1000 ------- 0 2.0 3.0 132 133
r 0.5328 2 3 cbr 1000 ------- 0 2.0 3.0 112 113
+ 0.533 2 3 cbr 1000 ------- 0 2.0 3.0 133 134
- 0.533 2 3 cbr 1000 ------- 0 2.0 3.0 133 134
r 0.5338 2 3 cbr 1000 ------- 0 2.0 3.0 113 114
+ 0.534 2 3 cbr 1000 ------- 0 2.0 3.0 134 135
- 0.534 2 3 cbr 1000 ------- 0 2.0 3.0 134 135
r 0.5348 2 3 cbr 1000 ------- 0 2.0 3.0 114 115
+ 0.535 2 3 cbr 1000 ------- 0 2.0 3.0 135 136
- 0.535 2 3 cbr 1000 ------- 0 2.0 3.0 135 136
r 0.5358 2 3 cbr 1000 ------- 0 2.0 3.0 115 116
+ 0.536 2 3 cbr 1000 ------- 0 2.0 3.0 136 137
- 0.536 2 3 cbr 1000 ------- 0 2.0 3.0 136 137
r 0.5368 2 3 cbr 1000 ------- 0 2.0 3.0 116 117
+ 0.537 2 3 cbr 1000 ------- 0 2.0 3.0 137 138
- 0.537 2 3 cbr 1000 ------- 0 2.0 3.0 137 138
r 0.5378 2 3 cbr 1000 ------- 0 2.0 3.0 117 118
+ 0.538 2 3 cbr 1000 ------- 0 2.0 3.0 138 139
- 0.538 2 3 cbr 1000 ------- 0 2.0 3.0 138 139
r 0.5388 2 3 cbr 1000 ------- 0 2.0 3.0 118 119
+ 0.539 2 3 cbr 1000 ------- 0 2.0 3.0 139 140
- 0.539 2 3 cbr 1000 ------- 0 2.0 3.0 139 140
r 0.5398 2 3 cbr 1000 ------- 0 2.0 3.0 119 120
+ 0.54 2 3 cbr 1000 ------- 0 2.0 3.0 140 141
- 0.54 2 3 cbr 1000 ------- 0 2.0 3.0 140 141
r 0.5408 2 3 cbr 1000 ------- 0 2.0 3.0 120 121
r 0.540864 3 4 tcp 40 ------- 1 0.0 4.0 0 100
+ 0.540864 4 3 ack 40 ------- 1 4.0 0.0 0 142
- 0.540864 4 3 ack 40 ------- 1 4.0 0.0 0 142
+ 0.541 2 3 cbr 1000 ------- 0 2.0 3.0 141 143
- 0.541 2 3 cbr 1000 ------- 0 2.0 3.0 141 143
r 0.5418 2 3 cbr 1000 ------- 0 2.0 3.0 121 122
+ 0.542 2 3 cbr 1000 ------- 0 2.0 3.0 142 144
- 0.542 2 3 cbr 1000 ------- 0 2.0 3.0 142 144
r 0.5428 2 3 cbr 1000 ------- 0 2.0 3.0 122 123
+ 0.543 2 3 cbr 1000 ------- 0 2.0 3.0 143 145
- 0.543 2 3 cbr 1000 ------- 0 2.0 3.0 143 145
r 0.5438 2 3 cbr 1000 ------- 0 2.0 3.0 123 124
+ 0.544 2 3 cbr 1000 ------- 0 2.0 3.0 144 146
- 0.544 2 3 cbr 1000 ------- 0 2.0 3.0 144 146
r 0.5448 2 3 cbr 1000 ------- 0 2.0 3.0 124 125
+ 0.545 2 3 cbr 1000 ------- 0 2.0 3.0 145 147
- 0.545 2 3 cbr 1000 ------- 0 2.0 3.0 145 147
r 0.5458 2 3 cbr 1000 ------- 0 2.0 3.0 125 126
+ 0.546 2 3 cbr 1000 ------- 0 2.0 3.0 146 148
- 0.546 2 3 cbr 1000 ------- 0 2.0 3.0 146 148
r 0.5468 2 3 cbr 1000 ------- 0 2.0 3.0 126 127
+ 0.547 2 3 cbr 1000 ------- 0 2.0 3.0 147 149
- 0.547 2 3 cbr 1000 ------- 0 2.0 3.0 147 149
r 0.5478 2 3 cbr 1000 ------- 0 2.0 3.0 127 128
+ 0.548 2 3 cbr 1000 ------- 0 2.0 3.0 148 150
- 0.548 2 3 cbr 1000 ------- 0 2.0 3.0 148 150
r 0.5488 2 3 cbr 1000 ------- 0 2.0 3.0 128 129
+ 0.549 2 3 cbr 1000 ------- 0 2.0 3.0 149 151
- 0.549 2 3 cbr 1000 ------- 0 2.0 3.0 149 151
r 0.5498 2 3 cbr 1000 ------- 0 2.0 3.0 129 130
+ 0.55 2 3 cbr 1000 ------- 0 2.0 3.0 150 152
- 0.55 2 3 cbr 1000 ------- 0 2.0 3.0 150 152
r 0.5508 2 3 cbr 1000 ------- 0 2.0 3.0 130 131
r 0.550896 4 3 ack 40 ------- 1 4.0 0.0 0 142
+ 0.550896 3 2 ack 40 ------- 1 4.0 0.0 0 142
- 0.550896 3 2 ack 40 ------- 1 4.0 0.0 0 142
+ 0.551 2 3 cbr 1000 ------- 0 2.0 3.0 151 153
- 0.551 2 3 cbr 1000 ------- 0 2.0 3.0 151 153
r 0.5518 2 3 cbr 1000 ------- 0 2.0 3.0 131 132
+ 0.552 2 3 cbr 1000 ------- 0 2.0 3.0 152 154
- 0.552 2 3 cbr 1000 ------- 0 2.0 3.0 152 154
r 0.5528 2 3 cbr 1000 ------- 0 2.0 3.0 132 133
+ 0.553 2 3 cbr 1000 ------- 0 2.0 3.0 153 155
- 0.553 2 3 cbr 1000 ------- 0 2.0 3.0 153 155
r 0.5538 2 3 cbr 1000 ------- 0 2.0 3.0 133 134
+ 0.554 2 3 cbr 1000 ------- 0 2.0 3.0 154 156
- 0.554 2 3 cbr 1000 ------- 0 2.0 3.0 154 156
r 0.5548 2 3 cbr 1000 ------- 0 2.0 3.0 134 135
+ 0.555 2 3 cbr 1000 ------- 0 2.0 3.0 155 157
- 0.555 2 3 cbr 1000 ------- 0 2.0 3.0 155 157
r 0.5558 2 3 cbr 1000 ------- 0 2.0 3.0 135 136
+ 0.556 2 3 cbr 1000 ------- 0 2.0 3.0 156 158
- 0.556 2 3 cbr 1000 ------- 0 2.0 3.0 156 158
r 0.5568 2 3 cbr 1000 ------- 0 2.0 3.0 136 137
+ 0.557 2 3 cbr 1000 ------- 0 2.0 3.0 157 159
- 0.557 2 3 cbr 1000 ------- 0 2.0 3.0 157 159
r 0.5578 2 3 cbr 1000 ------- 0 2.0 3.0 137 138
+ 0.558 2 3 cbr 1000 ------- 0 2.0 3.0 158 160
- 0.558 2 3 cbr 1000 ------- 0 2.0 3.0 158 160
r 0.5588 2 3 cbr 1000 ------- 0 2.0 3.0 138 139
+ 0.559 2 3 cbr 1000 ------- 0 2.0 3.0 159 161
- 0.559 2 3 cbr 1000 ------- 0 2.0 3.0 159 161
r 0.5598 2 3 cbr 1000 ------- 0 2.0 3.0 139 140
+ 0.56 2 3 cbr 1000 ------- 0 2.0 3.0 160 162
- 0.56 2 3 cbr 1000 ------- 0 2.0 3.0 160 162
r 0.5608 2 3 cbr 1000 ------- 0 2.0 3.0 140 141
+ 0.561 2 3 cbr 1000 ------- 0 2.0 3.0 161 163
- 0.561 2 3 cbr 1000 ------- 0 2.0 3.0 161 163
r 0.5618 2 3 cbr 1000 ------- 0 2.0 3.0 141 143
+ 0.562 2 3 cbr 1000 ------- 0 2.0 3.0 162 164
- 0.562 2 3 cbr 1000 ------- 0 2.0 3.0 162 164
r 0.5628 2 3 cbr 1000 ------- 0 2.0 3.0 142 144
+ 0.563 2 3 cbr 1000 ------- 0 2.0 3.0 163 165
- 0.563 2 3 cbr 1000 ------- 0 2.0 3.0 163 165
r 0.5638 2 3 cbr 1000 ------- 0 2.0 3.0 143 145
+ 0.564 2 3 cbr 1000 ------- 0 2.0 3.0 164 166
- 0.564 2 3 cbr 1000 ------- 0 2.0 3.0 164 166
r 0.5648 2 3 cbr 1000 ------- 0 2.0 3.0 144 146
+ 0.565 2 3 cbr 1000 ------- 0 2.0 3.0 165 167
- 0.565 2 3 cbr 1000 ------- 0 2.0 3.0 165 167
r 0.5658 2 3 cbr 1000 ------- 0 2.0 3.0 145 147
+ 0.566 2 3 cbr 1000 ------- 0 2.0 3.0 166 168
- 0.566 2 3 cbr 1000 ------- 0 2.0 3.0 166 168
r 0.5668 2 3 cbr 1000 ------- 0 2.0 3.0 146 148
+ 0.567 2 3 cbr 1000 ------- 0 2.0 3.0 167 169
- 0.567 2 3 cbr 1000 ------- 0 2.0 3.0 167 169
r 0.5678 2 3 cbr 1000 ------- 0 2.0 3.0 147 149
+ 0.568 2 3 cbr 1000 ------- 0 2.0 3.0 168 170
- 0.568 2 3 cbr 1000 ------- 0 2.0 3.0 168 170
r 0.5688 2 3 cbr 1000 ------- 0 2.0 3.0 148 150
+ 0.569 2 3 cbr 1000 ------- 0 2.0 3.0 169 171
- 0.569 2 3 cbr 1000 ------- 0 2.0 3.0 169 171
r 0.5698 2 3 cbr 1000 ------- 0 2.0 3.0 149 151
+ 0.57 2 3 cbr 1000 ------- 0 2.0 3.0 170 172
- 0.57 2 3 cbr 1000 ------- 0 2.0 3.0 170 172
r 0.5708 2 3 cbr 1000 ------- 0 2.0 3.0 150 152
r 0.570928 3 2 ack 40 ------- 1 4.0 0.0 0 142
+ 0.570928 2 0 ack 40 ------- 1 4.0 0.0 0 142
- 0.570928 2 0 ack 40 ------- 1 4.0 0.0 0 142
+ 0.571 2 3 cbr 1000 ------- 0 2.0 3.0 171 173
- 0.571 2 3 cbr 1000 ------- 0 2.0 3.0 171 173
r 0.5718 2 3 cbr 1000 ------- 0 2.0 3.0 151 153
+ 0.572 2 3 cbr 1000 ------- 0 2.0 3.0 172 174
- 0.572 2 3 cbr 1000 ------- 0 2.0 3.0 172 174
r 0.5728 2 3 cbr 1000 ------- 0 2.0 3.0 152 154
+ 0.573 2 3 cbr 1000 ------- 0 2.0 3.0 173 175
- 0.573 2 3 cbr 1000 ------- 0 2.0 3.0 173 175
r 0.5738 2 3 cbr 1000 ------- 0 2.0 3.0 153 155
+ 0.574 2 3 cbr 1000 ------- 0 2.0 3.0 174 176
- 0.574 2 3 cbr 1000 ------- 0 2.0 3.0 174 176
r 0.5748 2 3 cbr 1000 ------- 0 2.0 3.0 154 156
+ 0.575 2 3 cbr 1000 ------- 0 2.0 3.0 175 177
- 0.575 2 3 cbr 1000 ------- 0 2.0 3.0 175 177
r 0.5758 2 3 cbr 1000 ------- 0 2.0 3.0 155 157
+ 0.576 2 3 cbr 1000 ------- 0 2.0 3.0 176 178
- 0.576 2 3 cbr 1000 ------- 0 2.0 3.0 176 178
r 0.5768 2 3 cbr 1000 ------- 0 2.0 3.0 156 158
+ 0.577 2 3 cbr 1000 ------- 0 2.0 3.0 177 179
- 0.577 2 3 cbr 1000 ------- 0 2.0 3.0 177 179
r 0.5778 2 3 cbr 1000 ------- 0 2.0 3.0 157 159
+ 0.578 2 3 cbr 1000 ------- 0 2.0 3.0 178 180
- 0.578 2 3 cbr 1000 ------- 0 2.0 3.0 178 180
r 0.5788 2 3 cbr 1000 ------- 0 2.0 3.0 158 160
+ 0.579 2 3 cbr 1000 ------- 0 2.0 3.0 179 181
- 0.579 2 3 cbr 1000 ------- 0 2.0 3.0 179 181
r 0.5798 2 3 cbr 1000 ------- 0 2.0 3.0 159 161
+ 0.58 2 3 cbr 1000 ------- 0 2.0 3.0 180 182
- 0.58 2 3 cbr 1000 ------- 0 2.0 3.0 180 182
r 0.5808 2 3 cbr 1000 ------- 0 2.0 3.0 160 162
r 0.58096 2 0 ack 40 ------- 1 4.0 0.0 0 142
+ 0.58096 0 2 tcp 1040 ------- 1 0.0 4.0 1 183
- 0.58096 0 2 tcp 1040 ------- 1 0.0 4.0 1 183
+ 0.58096 0 2 tcp 1040 ------- 1 0.0 4.0 2 184
+ 0.581 2 3 cbr 1000 ------- 0 2.0 3.0 181 185
- 0.581 2 3 cbr 1000 ------- 0 2.0 3.0 181 185
- 0.581792 0 2 tcp 1040 ------- 1 0.0 4.0 2 184
r 0.5818 2 3 cbr 1000 ------- 0 2.0 3.0 161 163
+ 0.582 2 3 cbr 1000 ------- 0 2.0 3.0 182 186
- 0.582 2 3 cbr 1000 ------- 0 2.0 3.0 182 186
r 0.5828 2 3 cbr 1000 ------- 0 2.0 3.0 162 164
+ 0.583 2 3 cbr 1000 ------- 0 2.0 3.0 183 187
- 0.583 2 3 cbr 1000 ------- 0 2.0 3.0 183 187
r 0.5838 2 3 cbr 1000 ------- 0 2.0 3.0 163 165
+ 0.584 2 3 cbr 1000 ------- 0 2.0 3.0 184 188
- 0.584 2 3 cbr 1000 ------- 0 2.0 3.0 184 188
r 0.5848 2 3 cbr 1000 ------- 0 2.0 3.0 164 166
+ 0.585 2 3 cbr 1000 ------- 0 2.0 3.0 185 189
- 0.585 2 3 cbr 1000 ------- 0 2.0 3.0 185 189
r 0.5858 2 3 cbr 1000 ------- 0 2.0 3.0 165 167
+ 0.586 2 3 cbr 1000 ------- 0 2.0 3.0 186 190
- 0.586 2 3 cbr 1000 ------- 0 2.0 3.0 186 190
r 0.5868 2 3 cbr 1000 ------- 0 2.0 3.0 166 168
+ 0.587 2 3 cbr 1000 ------- 0 2.0 3.0 187 191
- 0.587 2 3 cbr 1000 ------- 0 2.0 3.0 187 191
r 0.5878 2 3 cbr 1000 ------- 0 2.0 3.0 167 169
+ 0.588 2 3 cbr 1000 ------- 0 2.0 3.0 188 192
- 0.588 2 3 cbr 1000 ------- 0 2.0 3.0 188 192
r 0.5888 2 3 cbr 1000 ------- 0 2.0 3.0 168 170
+ 0.589 2 3 cbr 1000 ------- 0 2.0 3.0 189 193
- 0.589 2 3 cbr 1000 ------- 0 2.0 3.0 189 193
r 0.5898 2 3 cbr 1000 ------- 0 2.0 3.0 169 171
+ 0.59 2 3 cbr 1000 ------- 0 2.0 3.0 190 194
- 0.59 2 3 cbr 1000 ------- 0 2.0 3.0 190 194
r 0.5908 2 3 cbr 1000 ------- 0 2.0 3.0 170 172
+ 0.591 2 3 cbr 1000 ------- 0 2.0 3.0 191 195
- 0.591 2 3 cbr 1000 ------- 0 2.0 3.0 191 195
r 0.591792 0 2 tcp 1040 ------- 1 0.0 4.0 1 183
+ 0.591792 2 3 tcp 1040 ------- 1 0.0 4.0 1 183
r 0.5918 2 3 cbr 1000 ------- 0 2.0 3.0 171 173
- 0.5918 2 3 tcp 1040 ------- 1 0.0 4.0 1 183
+ 0.592 2 3 cbr 1000 ------- 0 2.0 3.0 192 196
r 0.592624 0 2 tcp 1040 ------- 1 0.0 4.0 2 184
+ 0.592624 2 3 tcp 1040 ------- 1 0.0 4.0 2 184
- 0.592632 2 3 cbr 1000 ------- 0 2.0 3.0 192 196
r 0.5928 2 3 cbr 1000 ------- 0 2.0 3.0 172 174
+ 0.593 2 3 cbr 1000 ------- 0 2.0 3.0 193 197
- 0.593432 2 3 tcp 1040 ------- 1 0.0 4.0 2 184
r 0.5938 2 3 cbr 1000 ------- 0 2.0 3.0 173 175
+ 0.594 2 3 cbr 1000 ------- 0 2.0 3.0 194 198
- 0.594264 2 3 cbr 1000 ------- 0 2.0 3.0 193 197
r 0.5948 2 3 cbr 1000 ------- 0 2.0 3.0 174 176
+ 0.595 2 3 cbr 1000 ------- 0 2.0 3.0 195 199
- 0.595064 2 3 cbr 1000 ------- 0 2.0 3.0 194 198
r 0.5958 2 3 cbr 1000 ------- 0 2.0 3.0 175 177
- 0.595864 2 3 cbr 1000 ------- 0 2.0 3.0 195 199
+ 0.596 2 3 cbr 1000 ------- 0 2.0 3.0 196 200
- 0.596664 2 3 cbr 1000 ------- 0 2.0 3.0 196 200
r 0.5968 2 3 cbr 1000 ------- 0 2.0 3.0 176 178
+ 0.597 2 3 cbr 1000 ------- 0 2.0 3.0 197 201
- 0.597464 2 3 cbr 1000 ------- 0 2.0 3.0 197 201
r 0.5978 2 3 cbr 1000 ------- 0 2.0 3.0 177 179
+ 0.598 2 3 cbr 1000 ------- 0 2.0 3.0 198 202
- 0.598264 2 3 cbr 1000 ------- 0 2.0 3.0 198 202
r 0.5988 2 3 cbr 1000 ------- 0 2.0 3.0 178 180
+ 0.599 2 3 cbr 1000 ------- 0 2.0 3.0 199 203
- 0.599064 2 3 cbr 1000 ------- 0 2.0 3.0 199 203
r 0.5998 2 3 cbr 1000 ------- 0 2.0 3.0 179 181
+ 0.6 2 3 cbr 1000 ------- 0 2.0 3.0 200 204
- 0.6 2 3 cbr 1000 ------- 0 2.0 3.0 200 204
r 0.6008 2 3 cbr 1000 ------- 0 2.0 3.0 180 182
+ 0.601 2 3 cbr 1000 ------- 0 2.0 3.0 201 205
- 0.601 2 3 cbr 1000 ------- 0 2.0 3.0 201 205
r 0.6018 2 3 cbr 1000 ------- 0 2.0 3.0 181 185
+ 0.602 2 3 cbr 1000 ------- 0 2.0 3.0 202 206
- 0.602 2 3 cbr 1000 ------- 0 2.0 3.0 202 206
r 0.6028 2 3 cbr 1000 ------- 0 2.0 3.0 182 186
+ 0.603 2 3 cbr 1000 ------- 0 2.0 3.0 203 207
- 0.603 2 3 cbr 1000 ------- 0 2.0 3.0 203 207
r 0.6038 2 3 cbr 1000 ------- 0 2.0 3.0 183 187
+ 0.604 2 3 cbr 1000 ------- 0 2.0 3.0 204 208
- 0.604 2 3 cbr 1000 ------- 0 2.0 3.0 204 208
r 0.6048 2 3 cbr 1000 ------- 0 2.0 3.0 184 188
+ 0.605 2 3 cbr 1000 ------- 0 2.0 3.0 205 209
- 0.605 2 3 cbr 1000 ------- 0 2.0 3.0 205 209
r 0.6058 2 3 cbr 1000 ------- 0 2.0 3.0 185 189
+ 0.606 2 3 cbr 1000 ------- 0 2.0 3.0 206 210
- 0.606 2 3 cbr 1000 ------- 0 2.0 3.0 206 210
r 0.6068 2 3 cbr 1000 ------- 0 2.0 3.0 186 190
+ 0.607 2 3 cbr 1000 ------- 0 2.0 3.0 207 211
- 0.607 2 3 cbr 1000 ------- 0 2.0 3.0 207 211
r 0.6078 2 3 cbr 1000 ------- 0 2.0 3.0 187 191
+ 0.608 2 3 cbr 1000 ------- 0 2.0 3.0 208 212
- 0.608 2 3 cbr 1000 ------- 0 2.0 3.0 208 212
r 0.6088 2 3 cbr 1000 ------- 0 2.0 3.0 188 192
+ 0.609 2 3 cbr 1000 ------- 0 2.0 3.0 209 213
- 0.609 2 3 cbr 1000 ------- 0 2.0 3.0 209 213
r 0.6098 2 3 cbr 1000 ------- 0 2.0 3.0 189 193
+ 0.61 2 3 cbr 1000 ------- 0 2.0 3.0 210 214
- 0.61 2 3 cbr 1000 ------- 0 2.0 3.0 210 214
r 0.6108 2 3 cbr 1000 ------- 0 2.0 3.0 190 194
+ 0.611 2 3 cbr 1000 ------- 0 2.0 3.0 211 215
- 0.611 2 3 cbr 1000 ------- 0 2.0 3.0 211 215
r 0.6118 2 3 cbr 1000 ------- 0 2.0 3.0 191 195
+ 0.612 2 3 cbr 1000 ------- 0 2.0 3.0 212 216
- 0.612 2 3 cbr 1000 ------- 0 2.0 3.0 212 216
r 0.612632 2 3 tcp 1040 ------- 1 0.0 4.0 1 183
+ 0.612632 3 4 tcp 1040 ------- 1 0.0 4.0 1 183
- 0.612632 3 4 tcp 1040 ------- 1 0.0 4.0 1 183