+ 0.4 2 3 cbr 1000 ------- 0 2.0 3.0 0 0
- 0.4 2 3 cbr 1000 ------- 0 2.0 3.0 0 0
+ 0.400889 2 3 cbr 1000 ------- 0 2.0 3.0 1 1
- 0.400889 2 3 cbr 1000 ------- 0 2.0 3.0 1 1
+ 0.401778 2 3 cbr 1000 ------- 0 2.0 3.0 2 2
- 0.401778 2 3 cbr 1000 ------- 0 2.0 3.0 2 2
+ 0.402667 2 3 cbr 1000 ------- 0 2.0 3.0 3 3
- 0.402667 2 3 cbr 1000 ------- 0 2.0 3.0 3 3
+ 0.403556 2 3 cbr 1000 ------- 0 2.0 3.0 4 4
- 0.403556 2 3 cbr 1000 ------- 0 2.0 3.0 4 4
+ 0.404444 2 3 cbr 1000 ------- 0 2.0 3.0 5 5
- 0.404444 2 3 cbr 1000 ------- 0 2.0 3.0 5 5
+ 0.405333 2 3 cbr 1000 ------- 0 2.0 3.0 6 6
- 0.405333 2 3 cbr 1000 ------- 0 2.0 3.0 6 6
+ 0.406222 2 3 cbr 1000 ------- 0 2.0 3.0 7 7
- 0.406222 2 3 cbr 1000 ------- 0 2.0 3.0 7 7
+ 0.407111 2 3 cbr 1000 ------- 0 2.0 3.0 8 8
- 0.407111 2 3 cbr 1000 ------- 0 2.0 3.0 8 8
+ 0.408 2 3 cbr 1000 ------- 0 2.0 3.0 9 9
- 0.408 2 3 cbr 1000 ------- 0 2.0 3.0 9 9
+ 0.408889 2 3 cbr 1000 ------- 0 2.0 3.0 10 10
- 0.408889 2 3 cbr 1000 ------- 0 2.0 3.0 10 10
+ 0.409778 2 3 cbr 1000 ------- 0 2.0 3.0 11 11
- 0.409778 2 3 cbr 1000 ------- 0 2.0 3.0 11 11
+ 0.410667 2 3 cbr 1000 ------- 0 2.0 3.0 12 12
- 0.410667 2 3 cbr 1000 ------- 0 2.0 3.0 12 12
+ 0.411556 2 3 cbr 1000 ------- 0 2.0 3.0 13 13
- 0.411556 2 3 cbr 1000 ------- 0 2.0 3.0 13 13
+ 0.412444 2 3 cbr 1000 ------- 0 2.0 3.0 14 14
- 0.412444 2 3 cbr 1000 ------- 0 2.0 3.0 14 14
+ 0.413333 2 3 cbr 1000 ------- 0 2.0 3.0 15 15
- 0.413333 2 3 cbr 1000 ------- 0 2.0 3.0 15 15
+ 0.414222 2 3 cbr 1000 ------- 0 2.0 3.0 16 16
- 0.414222 2 3 cbr 1000 ------- 0 2.0 3.0 16 16
+ 0.415111 2 3 cbr 1000 ------- 0 2.0 3.0 17 17
- 0.415111 2 3 cbr 1000 ------- 0 2.0 3.0 17 17
+ 0.416 2 3 cbr 1000 ------- 0 2.0 3.0 18 18
- 0.416 2 3 cbr 1000 ------- 0 2.0 3.0 18 18
+ 0.416889 2 3 cbr 1000 ------- 0 2.0 3.0 19 19
- 0.416889 2 3 cbr 1000 ------- 0 2.0 3.0 19 19
+ 0.417778 2 3 cbr 1000 ------- 0 2.0 3.0 20 20
- 0.417778 2 3 cbr 1000 ------- 0 2.0 3.0 20 20
+ 0.418667 2 3 cbr 1000 ------- 0 2.0 3.0 21 21
- 0.418667 2 3 cbr 1000 ------- 0 2.0 3.0 21 21
+ 0.419556 2 3 cbr 1000 ------- 0 2.0 3.0 22 22
- 0.419556 2 3 cbr 1000 ------- 0 2.0 3.0 22 22
+ 0.420444 2 3 cbr 1000 ------- 0 2.0 3.0 23 23
- 0.420444 2 3 cbr 1000 ------- 0 2.0 3.0 23 23
r 0.4208 2 3 cbr 1000 ------- 0 2.0 3.0 0 0
+ 0.421333 2 3 cbr 1000 ------- 0 2.0 3.0 24 24
- 0.421333 2 3 cbr 1000 ------- 0 2.0 3.0 24 24
r 0.421689 2 3 cbr 1000 ------- 0 2.0 3.0 1 1
+ 0.422222 2 3 cbr 1000 ------- 0 2.0 3.0 25 25
- 0.422222 2 3 cbr 1000 ------- 0 2.0 3.0 25 25
r 0.422578 2 3 cbr 1000 ------- 0 2.0 3.0 2 2
+ 0.423111 2 3 cbr 1000 ------- 0 2.0 3.0 26 26
- 0.423111 2 3 cbr 1000 ------- 0 2.0 3.0 26 26
r 0.423467 2 3 cbr 1000 ------- 0 2.0 3.0 3 3
+ 0.424 2 3 cbr 1000 ------- 0 2.0 3.0 27 27
- 0.424 2 3 cbr 1000 ------- 0 2.0 3.0 27 27
r 0.424356 2 3 cbr 1000 ------- 0 2.0 3.0 4 4
+ 0.424889 2 3 cbr 1000 ------- 0 2.0 3.0 28 28
- 0.424889 2 3 cbr 1000 ------- 0 2.0 3.0 28 28
r 0.425244 2 3 cbr 1000 ------- 0 2.0 3.0 5 5
+ 0.425778 2 3 cbr 1000 ------- 0 2.0 3.0 29 29
- 0.425778 2 3 cbr 1000 ------- 0 2.0 3.0 29 29
r 0.426133 2 3 cbr 1000 ------- 0 2.0 3.0 6 6
+ 0.426667 2 3 cbr 1000 ------- 0 2.0 3.0 30 30
- 0.426667 2 3 cbr 1000 ------- 0 2.0 3.0 30 30
r 0.427022 2 3 cbr 1000 ------- 0 2.0 3.0 7 7
+ 0.427556 2 3 cbr 1000 ------- 0 2.0 3.0 31 31
- 0.427556 2 3 cbr 1000 ------- 0 2.0 3.0 31 31
r 0.427911 2 3 cbr 1000 ------- 0 2.0 3.0 8 8
+ 0.428444 2 3 cbr 1000 ------- 0 2.0 3.0 32 32
- 0.428444 2 3 cbr 1000 ------- 0 2.0 3.0 32 32
r 0.4288 2 3 cbr 1000 ------- 0 2.0 3.0 9 9
+ 0.429333 2 3 cbr 1000 ------- 0 2.0 3.0 33 33
- 0.429333 2 3 cbr 1000 ------- 0 2.0 3.0 33 33
r 0.429689 2 3 cbr 1000 ------- 0 2.0 3.0 10 10
+ 0.430222 2 3 cbr 1000 ------- 0 2.0 3.0 34 34
- 0.430222 2 3 cbr 1000 ------- 0 2.0 3.0 34 34
r 0.430578 2 3 cbr 1000 ------- 0 2.0 3.0 11 11
+ 0.431111 2 3 cbr 1000 ------- 0 2.0 3.0 35 35
- 0.431111 2 3 cbr 1000 ------- 0 2.0 3.0 35 35
r 0.431467 2 3 cbr 1000 ------- 0 2.0 3.0 12 12
+ 0.432 2 3 cbr 1000 ------- 0 2.0 3.0 36 36
- 0.432 2 3 cbr 1000 ------- 0 2.0 3.0 36 36
r 0.432356 2 3 cbr 1000 ------- 0 2.0 3.0 13 13
+ 0.432889 2 3 cbr 1000 ------- 0 2.0 3.0 37 37
- 0.432889 2 3 cbr 1000 ------- 0 2.0 3.0 37 37
r 0.433244 2 3 cbr 1000 ------- 0 2.0 3.0 14 14
+ 0.433778 2 3 cbr 1000 ------- 0 2.0 3.0 38 38
- 0.433778 2 3 cbr 1000 ------- 0 2.0 3.0 38 38
r 0.434133 2 3 cbr 1000 ------- 0 2.0 3.0 15 15
+ 0.434667 2 3 cbr 1000 ------- 0 2.0 3.0 39 39
- 0.434667 2 3 cbr 1000 ------- 0 2.0 3.0 39 39
r 0.435022 2 3 cbr 1000 ------- 0 2.0 3.0 16 16
+ 0.435556 2 3 cbr 1000 ------- 0 2.0 3.0 40 40
- 0.435556 2 3 cbr 1000 ------- 0 2.0 3.0 40 40
r 0.435911 2 3 cbr 1000 ------- 0 2.0 3.0 17 17
+ 0.436444 2 3 cbr 1000 ------- 0 2.0 3.0 41 41
- 0.436444 2 3 cbr 1000 ------- 0 2.0 3.0 41 41
r 0.4368 2 3 cbr 1000 ------- 0 2.0 3.0 18 18
+ 0.437333 2 3 cbr 1000 ------- 0 2.0 3.0 42 42
- 0.437333 2 3 cbr 1000 ------- 0 2.0 3.0 42 42
r 0.437689 2 3 cbr 1000 ------- 0 2.0 3.0 19 19
+ 0.438222 2 3 cbr 1000 ------- 0 2.0 3.0 43 43
- 0.438222 2 3 cbr 1000 ------- 0 2.0 3.0 43 43
r 0.438578 2 3 cbr 1000 ------- 0 2.0 3.0 20 20
+ 0.439111 2 3 cbr 1000 ------- 0 2.0 3.0 44 44
- 0.439111 2 3 cbr 1000 ------- 0 2.0 3.0 44 44
r 0.439467 2 3 cbr 1000 ------- 0 2.0 3.0 21 21
+ 0.44 2 3 cbr 1000 ------- 0 2.0 3.0 45 45
- 0.44 2 3 cbr 1000 ------- 0 2.0 3.0 45 45
r 0.440356 2 3 cbr 1000 ------- 0 2.0 3.0 22 22
+ 0.440889 2 3 cbr 1000 ------- 0 2.0 3.0 46 46
- 0.440889 2 3 cbr 1000 ------- 0 2.0 3.0 46 46
r 0.441244 2 3 cbr 1000 ------- 0 2.0 3.0 23 23
+ 0.441778 2 3 cbr 1000 ------- 0 2.0 3.0 47 47
- 0.441778 2 3 cbr 1000 ------- 0 2.0 3.0 47 47
r 0.442133 2 3 cbr 1000 ------- 0 2.0 3.0 24 24
+ 0.442667 2 3 cbr 1000 ------- 0 2.0 3.0 48 48
- 0.442667 2 3 cbr 1000 ------- 0 2.0 3.0 48 48
r 0.443022 2 3 cbr 1000 ------- 0 2.0 3.0 25 25
+ 0.443556 2 3 cbr 1000 ------- 0 2.0 3.0 49 49
- 0.443556 2 3 cbr 1000 ------- 0 2.0 3.0 49 49
r 0.443911 2 3 cbr 1000 ------- 0 2.0 3.0 26 26
+ 0.444444 2 3 cbr 1000 ------- 0 2.0 3.0 50 50
- 0.444444 2 3 cbr 1000 ------- 0 2.0 3.0 50 50
r 0.4448 2 3 cbr 1000 ------- 0 2.0 3.0 27 27
+ 0.445333 2 3 cbr 1000 ------- 0 2.0 3.0 51 51
- 0.445333 2 3 cbr 1000 ------- 0 2.0 3.0 51 51
r 0.445689 2 3 cbr 1000 ------- 0 2.0 3.0 28 28
+ 0.446222 2 3 cbr 1000 ------- 0 2.0 3.0 52 52
- 0.446222 2 3 cbr 1000 ------- 0 2.0 3.0 52 52
r 0.446578 2 3 cbr 1000 ------- 0 2.0 3.0 29 29
+ 0.447111 2 3 cbr 1000 ------- 0 2.0 3.0 53 53
- 0.447111 2 3 cbr 1000 ------- 0 2.0 3.0 53 53
r 0.447467 2 3 cbr 1000 ------- 0 2.0 3.0 30 30
+ 0.448 2 3 cbr 1000 ------- 0 2.0 3.0 54 54
- 0.448 2 3 cbr 1000 ------- 0 2.0 3.0 54 54
r 0.448356 2 3 cbr 1000 ------- 0 2.0 3.0 31 31
+ 0.448889 2 3 cbr 1000 ------- 0 2.0 3.0 55 55
- 0.448889 2 3 cbr 1000 ------- 0 2.0 3.0 55 55
r 0.449244 2 3 cbr 1000 ------- 0 2.0 3.0 32 32
+ 0.449778 2 3 cbr 1000 ------- 0 2.0 3.0 56 56
- 0.449778 2 3 cbr 1000 ------- 0 2.0 3.0 56 56
r 0.450133 2 3 cbr 1000 ------- 0 2.0 3.0 33 33
+ 0.450667 2 3 cbr 1000 ------- 0 2.0 3.0 57 57
- 0.450667 2 3 cbr 1000 ------- 0 2.0 3.0 57 57
r 0.451022 2 3 cbr 1000 ------- 0 2.0 3.0 34 34
+ 0.451556 2 3 cbr 1000 ------- 0 2.0 3.0 58 58
- 0.451556 2 3 cbr 1000 ------- 0 2.0 3.0 58 58
r 0.451911 2 3 cbr 1000 ------- 0 2.0 3.0 35 35
+ 0.452444 2 3 cbr 1000 ------- 0 2.0 3.0 59 59
- 0.452444 2 3 cbr 1000 ------- 0 2.0 3.0 59 59
r 0.4528 2 3 cbr 1000 ------- 0 2.0 3.0 36 36
+ 0.453333 2 3 cbr 1000 ------- 0 2.0 3.0 60 60
- 0.453333 2 3 cbr 1000 ------- 0 2.0 3.0 60 60
r 0.453689 2 3 cbr 1000 ------- 0 2.0 3.0 37 37
+ 0.454222 2 3 cbr 1000 ------- 0 2.0 3.0 61 61
- 0.454222 2 3 cbr 1000 ------- 0 2.0 3.0 61 61
r 0.454578 2 3 cbr 1000 ------- 0 2.0 3.0 38 38
+ 0.455111 2 3 cbr 1000 ------- 0 2.0 3.0 62 62
- 0.455111 2 3 cbr 1000 ------- 0 2.0 3.0 62 62
r 0.455467 2 3 cbr 1000 ------- 0 2.0 3.0 39 39
+ 0.456 2 3 cbr 1000 ------- 0 2.0 3.0 63 63
- 0.456 2 3 cbr 1000 ------- 0 2.0 3.0 63 63
r 0.456356 2 3 cbr 1000 ------- 0 2.0 3.0 40 40
+ 0.456889 2 3 cbr 1000 ------- 0 2.0 3.0 64 64
- 0.456889 2 3 cbr 1000 ------- 0 2.0 3.0 64 64
r 0.457244 2 3 cbr 1000 ------- 0 2.0 3.0 41 41
+ 0.457778 2 3 cbr 1000 ------- 0 2.0 3.0 65 65
- 0.457778 2 3 cbr 1000 ------- 0 2.0 3.0 65 65
r 0.458133 2 3 cbr 1000 ------- 0 2.0 3.0 42 42
+ 0.458667 2 3 cbr 1000 ------- 0 2.0 3.0 66 66
- 0.458667 2 3 cbr 1000 ------- 0 2.0 3.0 66 66
r 0.459022 2 3 cbr 1000 ------- 0 2.0 3.0 43 43
+ 0.459556 2 3 cbr 1000 ------- 0 2.0 3.0 67 67
- 0.459556 2 3 cbr 1000 ------- 0 2.0 3.0 67 67
r 0.459911 2 3 cbr 1000 ------- 0 2.0 3.0 44 44
+ 0.460444 2 3 cbr 1000 ------- 0 2.0 3.0 68 68
- 0.460444 2 3 cbr 1000 ------- 0 2.0 3.0 68 68
r 0.4608 2 3 cbr 1000 ------- 0 2.0 3.0 45 45
+ 0.461333 2 3 cbr 1000 ------- 0 2.0 3.0 69 69
- 0.461333 2 3 cbr 1000 ------- 0 2.0 3.0 69 69
r 0.461689 2 3 cbr 1000 ------- 0 2.0 3.0 46 46
+ 0.462222 2 3 cbr 1000 ------- 0 2.0 3.0 70 70
- 0.462222 2 3 cbr 1000 ------- 0 2.0 3.0 70 70
r 0.462578 2 3 cbr 1000 ------- 0 2.0 3.0 47 47
+ 0.463111 2 3 cbr 1000 ------- 0 2.0 3.0 71 71
- 0.463111 2 3 cbr 1000 ------- 0 2.0 3.0 71 71
r 0.463467 2 3 cbr 1000 ------- 0 2.0 3.0 48 48
+ 0.464 2 3 cbr 1000 ------- 0 2.0 3.0 72 72
- 0.464 2 3 cbr 1000 ------- 0 2.0 3.0 72 72
r 0.464356 2 3 cbr 1000 ------- 0 2.0 3.0 49 49
+ 0.464889 2 3 cbr 1000 ------- 0 2.0 3.0 73 73
- 0.464889 2 3 cbr 1000 ------- 0 2.0 3.0 73 73
r 0.465244 2 3 cbr 1000 ------- 0 2.0 3.0 50 50
+ 0.465778 2 3 cbr 1000 ------- 0 2.0 3.0 74 74
- 0.465778 2 3 cbr 1000 ------- 0 2.0 3.0 74 74
r 0.466133 2 3 cbr 1000 ------- 0 2.0 3.0 51 51
+ 0.466667 2 3 cbr 1000 ------- 0 2.0 3.0 75 75
- 0.466667 2 3 cbr 1000 ------- 0 2.0 3.0 75 75
r 0.467022 2 3 cbr 1000 ------- 0 2.0 3.0 52 52
+ 0.467556 2 3 cbr 1000 ------- 0 2.0 3.0 76 76
- 0.467556 2 3 cbr 1000 ------- 0 2.0 3.0 76 76
r 0.467911 2 3 cbr 1000 ------- 0 2.0 3.0 53 53
+ 0.468444 2 3 cbr 1000 ------- 0 2.0 3.0 77 77
- 0.468444 2 3 cbr 1000 ------- 0 2.0 3.0 77 77
r 0.4688 2 3 cbr 1000 ------- 0 2.0 3.0 54 54
+ 0.469333 2 3 cbr 1000 ------- 0 2.0 3.0 78 78
- 0.469333 2 3 cbr 1000 ------- 0 2.0 3.0 78 78
r 0.469689 2 3 cbr 1000 ------- 0 2.0 3.0 55 55
+ 0.470222 2 3 cbr 1000 ------- 0 2.0 3.0 79 79
- 0.470222 2 3 cbr 1000 ------- 0 2.0 3.0 79 79
r 0.470578 2 3 cbr 1000 ------- 0 2.0 3.0 56 56
+ 0.471111 2 3 cbr 1000 ------- 0 2.0 3.0 80 80
- 0.471111 2 3 cbr 1000 ------- 0 2.0 3.0 80 80
r 0.471467 2 3 cbr 1000 ------- 0 2.0 3.0 57 57
+ 0.472 2 3 cbr 1000 ------- 0 2.0 3.0 81 81
- 0.472 2 3 cbr 1000 ------- 0 2.0 3.0 81 81
r 0.472356 2 3 cbr 1000 ------- 0 2.0 3.0 58 58
+ 0.472889 2 3 cbr 1000 ------- 0 2.0 3.0 82 82
- 0.472889 2 3 cbr 1000 ------- 0 2.0 3.0 82 82
r 0.473244 2 3 cbr 1000 ------- 0 2.0 3.0 59 59
+ 0.473778 2 3 cbr 1000 ------- 0 2.0 3.0 83 83
- 0.473778 2 3 cbr 1000 ------- 0 2.0 3.0 83 83
r 0.474133 2 3 cbr 1000 ------- 0 2.0 3.0 60 60
+ 0.474667 2 3 cbr 1000 ------- 0 2.0 3.0 84 84
- 0.474667 2 3 cbr 1000 ------- 0 2.0 3.0 84 84
r 0.475022 2 3 cbr 1000 ------- 0 2.0 3.0 61 61
+ 0.475556 2 3 cbr 1000 ------- 0 2.0 3.0 85 85
- 0.475556 2 3 cbr 1000 ------- 0 2.0 3.0 85 85
r 0.475911 2 3 cbr 1000 ------- 0 2.0 3.0 62 62
+ 0.476444 2 3 cbr 1000 ------- 0 2.0 3.0 86 86
- 0.476444 2 3 cbr 1000 ------- 0 2.0 3.0 86 86
r 0.4768 2 3 cbr 1000 ------- 0 2.0 3.0 63 63
+ 0.477333 2 3 cbr 1000 ------- 0 2.0 3.0 87 87
- 0.477333 2 3 cbr 1000 ------- 0 2.0 3.0 87 87
r 0.477689 2 3 cbr 1000 ------- 0 2.0 3.0 64 64
+ 0.478222 2 3 cbr 1000 ------- 0 2.0 3.0 88 88
- 0.478222 2 3 cbr 1000 ------- 0 2.0 3.0 88 88
r 0.478578 2 3 cbr 1000 ------- 0 2.0 3.0 65 65
+ 0.479111 2 3 cbr 1000 ------- 0 2.0 3.0 89 89
- 0.479111 2 3 cbr 1000 ------- 0 2.0 3.0 89 89
r 0.479467 2 3 cbr 1000 ------- 0 2.0 3.0 66 66
+ 0.48 2 3 cbr 1000 ------- 0 2.0 3.0 90 90
- 0.48 2 3 cbr 1000 ------- 0 2.0 3.0 90 90
r 0.480356 2 3 cbr 1000 ------- 0 2.0 3.0 67 67
+ 0.480889 2 3 cbr 1000 ------- 0 2.0 3.0 91 91
- 0.480889 2 3 cbr 1000 ------- 0 2.0 3.0 91 91
r 0.481244 2 3 cbr 1000 ------- 0 2.0 3.0 68 68
+ 0.481778 2 3 cbr 1000 ------- 0 2.0 3.0 92 92
- 0.481778 2 3 cbr 1000 ------- 0 2.0 3.0 92 92
r 0.482133 2 3 cbr 1000 ------- 0 2.0 3.0 69 69
+ 0.482667 2 3 cbr 1000 ------- 0 2.0 3.0 93 93
- 0.482667 2 3 cbr 1000 ------- 0 2.0 3.0 93 93
r 0.483022 2 3 cbr 1000 ------- 0 2.0 3.0 70 70
+ 0.483556 2 3 cbr 1000 ------- 0 2.0 3.0 94 94
- 0.483556 2 3 cbr 1000 ------- 0 2.0 3.0 94 94
r 0.483911 2 3 cbr 1000 ------- 0 2.0 3.0 71 71
+ 0.484444 2 3 cbr 1000 ------- 0 2.0 3.0 95 95
- 0.484444 2 3 cbr 1000 ------- 0 2.0 3.0 95 95
r 0.4848 2 3 cbr 1000 ------- 0 2.0 3.0 72 72
+ 0.485333 2 3 cbr 1000 ------- 0 2.0 3.0 96 96
- 0.485333 2 3 cbr 1000 ------- 0 2.0 3.0 96 96
r 0.485689 2 3 cbr 1000 ------- 0 2.0 3.0 73 73
+ 0.486222 2 3 cbr 1000 ------- 0 2.0 3.0 97 97
- 0.486222 2 3 cbr 1000 ------- 0 2.0 3.0 97 97
r 0.486578 2 3 cbr 1000 ------- 0 2.0 3.0 74 74
+ 0.487111 2 3 cbr 1000 ------- 0 2.0 3.0 98 98
- 0.487111 2 3 cbr 1000 ------- 0 2.0 3.0 98 98
r 0.487467 2 3 cbr 1000 ------- 0 2.0 3.0 75 75
+ 0.488 2 3 cbr 1000 ------- 0 2.0 3.0 99 99
- 0.488 2 3 cbr 1000 ------- 0 2.0 3.0 99 99
r 0.488356 2 3 cbr 1000 ------- 0 2.0 3.0 76 76
+ 0.488889 2 3 cbr 1000 ------- 0 2.0 3.0 100 100
- 0.488889 2 3 cbr 1000 ------- 0 2.0 3.0 100 100
r 0.489244 2 3 cbr 1000 ------- 0 2.0 3.0 77 77
+ 0.489778 2 3 cbr 1000 ------- 0 2.0 3.0 101 101
- 0.489778 2 3 cbr 1000 ------- 0 2.0 3.0 101 101
r 0.490133 2 3 cbr 1000 ------- 0 2.0 3.0 78 78
+ 0.490667 2 3 cbr 1000 ------- 0 2.0 3.0 102 102
- 0.490667 2 3 cbr 1000 ------- 0 2.0 3.0 102 102
r 0.491022 2 3 cbr 1000 ------- 0 2.0 3.0 79 79
+ 0.491556 2 3 cbr 1000 ------- 0 2.0 3.0 103 103
- 0.491556 2 3 cbr 1000 ------- 0 2.0 3.0 103 103
r 0.491911 2 3 cbr 1000 ------- 0 2.0 3.0 80 80
+ 0.492444 2 3 cbr 1000 ------- 0 2.0 3.0 104 104
- 0.492444 2 3 cbr 1000 ------- 0 2.0 3.0 104 104
r 0.4928 2 3 cbr 1000 ------- 0 2.0 3.0 81 81
+ 0.493333 2 3 cbr 1000 ------- 0 2.0 3.0 105 105
- 0.493333 2 3 cbr 1000 ------- 0 2.0 3.0 105 105
r 0.493689 2 3 cbr 1000 ------- 0 2.0 3.0 82 82
+ 0.494222 2 3 cbr 1000 ------- 0 2.0 3.0 106 106
- 0.494222 2 3 cbr 1000 ------- 0 2.0 3.0 106 106
r 0.494578 2 3 cbr 1000 ------- 0 2.0 3.0 83 83
+ 0.495111 2 3 cbr 1000 ------- 0 2.0 3.0 107 107
- 0.495111 2 3 cbr 1000 ------- 0 2.0 3.0 107 107
r 0.495467 2 3 cbr 1000 ------- 0 2.0 3.0 84 84
+ 0.496 2 3 cbr 1000 ------- 0 2.0 3.0 108 108
- 0.496 2 3 cbr 1000 ------- 0 2.0 3.0 108 108
r 0.496356 2 3 cbr 1000 ------- 0 2.0 3.0 85 85
+ 0.496889 2 3 cbr 1000 ------- 0 2.0 3.0 109 109
- 0.496889 2 3 cbr 1000 ------- 0 2.0 3.0 109 109
r 0.497244 2 3 cbr 1000 ------- 0 2.0 3.0 86 86
+ 0.497778 2 3 cbr 1000 ------- 0 2.0 3.0 110 110
- 0.497778 2 3 cbr 1000 ------- 0 2.0 3.0 110 110
r 0.498133 2 3 cbr 1000 ------- 0 2.0 3.0 87 87
+ 0.498667 2 3 cbr 1000 ------- 0 2.0 3.0 111 111
- 0.498667 2 3 cbr 1000 ------- 0 2.0 3.0 111 111
r 0.499022 2 3 cbr 1000 ------- 0 2.0 3.0 88 88
+ 0.499556 2 3 cbr 1000 ------- 0 2.0 3.0 112 112
- 0.499556 2 3 cbr 1000 ------- 0 2.0 3.0 112 112
r 0.499911 2 3 cbr 1000 ------- 0 2.0 3.0 89 89
+ 0.5 0 2 tcp 40 ------- 1 0.0 4.0 0 113
- 0.5 0 2 tcp 40 ------- 1 0.0 4.0 0 113
+ 0.500444 2 3 cbr 1000 ------- 0 2.0 3.0 113 114
- 0.500444 2 3 cbr 1000 ------- 0 2.0 3.0 113 114
r 0.5008 2 3 cbr 1000 ------- 0 2.0 3.0 90 90
+ 0.501333 2 3 cbr 1000 ------- 0 2.0 3.0 114 115
- 0.501333 2 3 cbr 1000 ------- 0 2.0 3.0 114 115
r 0.501689 2 3 cbr 1000 ------- 0 2.0 3.0 91 91
+ 0.502222 2 3 cbr 1000 ------- 0 2.0 3.0 115 116
- 0.502222 2 3 cbr 1000 ------- 0 2.0 3.0 115 116
r 0.502578 2 3 cbr 1000 ------- 0 2.0 3.0 92 92
+ 0.503111 2 3 cbr 1000 ------- 0 2.0 3.0 116 117
- 0.503111 2 3 cbr 1000 ------- 0 2.0 3.0 116 117
r 0.503467 2 3 cbr 1000 ------- 0 2.0 3.0 93 93
+ 0.504 2 3 cbr 1000 ------- 0 2.0 3.0 117 118
- 0.504 2 3 cbr 1000 ------- 0 2.0 3.0 117 118
r 0.504356 2 3 cbr 1000 ------- 0 2.0 3.0 94 94
+ 0.504889 2 3 cbr 1000 ------- 0 2.0 3.0 118 119
- 0.504889 2 3 cbr 1000 ------- 0 2.0 3.0 118 119
r 0.505244 2 3 cbr 1000 ------- 0 2.0 3.0 95 95
+ 0.505778 2 3 cbr 1000 ------- 0 2.0 3.0 119 120
- 0.505778 2 3 cbr 1000 ------- 0 2.0 3.0 119 120
r 0.506133 2 3 cbr 1000 ------- 0 2.0 3.0 96 96
+ 0.506667 2 3 cbr 1000 ------- 0 2.0 3.0 120 121
- 0.506667 2 3 cbr 1000 ------- 0 2.0 3.0 120 121
r 0.507022 2 3 cbr 1000 ------- 0 2.0 3.0 97 97
+ 0.507556 2 3 cbr 1000 ------- 0 2.0 3.0 121 122
- 0.507556 2 3 cbr 1000 ------- 0 2.0 3.0 121 122
r 0.507911 2 3 cbr 1000 ------- 0 2.0 3.0 98 98
+ 0.508444 2 3 cbr 1000 ------- 0 2.0 3.0 122 123
- 0.508444 2 3 cbr 1000 ------- 0 2.0 3.0 122 123
r 0.5088 2 3 cbr 1000 ------- 0 2.0 3.0 99 99
+ 0.509333 2 3 cbr 1000 ------- 0 2.0 3.0 123 124
- 0.509333 2 3 cbr 1000 ------- 0 2.0 3.0 123 124
r 0.509689 2 3 cbr 1000 ------- 0 2.0 3.0 100 100
r 0.510032 0 2 tcp 40 ------- 1 0.0 4.0 0 113
+ 0.510032 2 3 tcp 40 ------- 1 0.0 4.0 0 113
- 0.510133 2 3 tcp 40 ------- 1 0.0 4.0 0 113
+ 0.510222 2 3 cbr 1000 ------- 0 2.0 3.0 124 125
- 0.510222 2 3 cbr 1000 ------- 0 2.0 3.0 124 125
r 0.510578 2 3 cbr 1000 ------- 0 2.0 3.0 101 101
+ 0.511111 2 3 cbr 1000 ------- 0 2.0 3.0 125 126
- 0.511111 2 3 cbr 1000 ------- 0 2.0 3.0 125 126
r 0.511467 2 3 cbr 1000 ------- 0 2.0 3.0 102 102
+ 0.512 2 3 cbr 1000 ------- 0 2.0 3.0 126 127
- 0.512 2 3 cbr 1000 ------- 0 2.0 3.0 126 127
r 0.512356 2 3 cbr 1000 ------- 0 2.0 3.0 103 103
+ 0.512889 2 3 cbr 1000 ------- 0 2.0 3.0 127 128
- 0.512889 2 3 cbr 1000 ------- 0 2.0 3.0 127 128
r 0.513244 2 3 cbr 1000 ------- 0 2.0 3.0 104 104
+ 0.513778 2 3 cbr 1000 ------- 0 2.0 3.0 128 129
- 0.513778 2 3 cbr 1000 ------- 0 2.0 3.0 128 129
r 0.514133 2 3 cbr 1000 ------- 0 2.0 3.0 105 105
+ 0.514667 2 3 cbr 1000 ------- 0 2.0 3.0 129 130
- 0.514667 2 3 cbr 1000 ------- 0 2.0 3.0 129 130
r 0.515022 2 3 cbr 1000 ------- 0 2.0 3.0 106 106
+ 0.515556 2 3 cbr 1000 ------- 0 2.0 3.0 130 131
- 0.515556 2 3 cbr 1000 ------- 0 2.0 3.0 130 131
r 0.515911 2 3 cbr 1000 ------- 0 2.0 3.0 107 107
+ 0.516444 2 3 cbr 1000 ------- 0 2.0 3.0 131 132
- 0.516444 2 3 cbr 1000 ------- 0 2.0 3.0 131 132
r 0.5168 2 3 cbr 1000 ------- 0 2.0 3.0 108 108
+ 0.517333 2 3 cbr 1000 ------- 0 2.0 3.0 132 133
- 0.517333 2 3 cbr 1000 ------- 0 2.0 3.0 132 133
r 0.517689 2 3 cbr 1000 ------- 0 2.0 3.0 109 109
+ 0.518222 2 3 cbr 1000 ------- 0 2.0 3.0 133 134
- 0.518222 2 3 cbr 1000 ------- 0 2.0 3.0 133 134
r 0.518578 2 3 cbr 1000 ------- 0 2.0 3.0 110 110
+ 0.519111 2 3 cbr 1000 ------- 0 2.0 3.0 134 135
- 0.519111 2 3 cbr 1000 ------- 0 2.0 3.0 134 135
r 0.519467 2 3 cbr 1000 ------- 0 2.0 3.0 111 111
+ 0.52 2 3 cbr 1000 ------- 0 2.0 3.0 135 136
- 0.52 2 3 cbr 1000 ------- 0 2.0 3.0 135 136
r 0.520356 2 3 cbr 1000 ------- 0 2.0 3.0 112 112
+ 0.520889 2 3 cbr 1000 ------- 0 2.0 3.0 136 137
- 0.520889 2 3 cbr 1000 ------- 0 2.0 3.0 136 137
r 0.521244 2 3 cbr 1000 ------- 0 2.0 3.0 113 114
+ 0.521778 2 3 cbr 1000 ------- 0 2.0 3.0 137 138
- 0.521778 2 3 cbr 1000 ------- 0 2.0 3.0 137 138
r 0.522133 2 3 cbr 1000 ------- 0 2.0 3.0 114 115
+ 0.522667 2 3 cbr 1000 ------- 0 2.0 3.0 138 139
- 0.522667 2 3 cbr 1000 ------- 0 2.0 3.0 138 139
r 0.523022 2 3 cbr 1000 ------- 0 2.0 3.0 115 116
+ 0.523556 2 3 cbr 1000 ------- 0 2.0 3.0 139 140
- 0.523556 2 3 cbr 1000 ------- 0 2.0 3.0 139 140
r 0.523911 2 3 cbr 1000 ------- 0 2.0 3.0 116 117
+ 0.524444 2 3 cbr 1000 ------- 0 2.0 3.0 140 141
- 0.524444 2 3 cbr 1000 ------- 0 2.0 3.0 140 141
r 0.5248 2 3 cbr 1000 ------- 0 2.0 3.0 117 118
+ 0.525333 2 3 cbr 1000 ------- 0 2.0 3.0 141 142
- 0.525333 2 3 cbr 1000 ------- 0 2.0 3.0 141 142
r 0.525689 2 3 cbr 1000 ------- 0 2.0 3.0 118 119
+ 0.526222 2 3 cbr 1000 ------- 0 2.0 3.0 142 143
- 0.526222 2 3 cbr 1000 ------- 0 2.0 3.0 142 143
r 0.526578 2 3 cbr 1000 ------- 0 2.0 3.0 119 120
+ 0.527111 2 3 cbr 1000 ------- 0 2.0 3.0 143 144
- 0.527111 2 3 cbr 1000 ------- 0 2.0 3.0 143 144
r 0.527467 2 3 cbr 1000 ------- 0 2.0 3.0 120 121
+ 0.528 2 3 cbr 1000 ------- 0 2.0 3.0 144 145
- 0.528 2 3 cbr 1000 ------- 0 2.0 3.0 144 145
r 0.528356 2 3 cbr 1000 ------- 0 2.0 3.0 121 122
+ 0.528889 2 3 cbr 1000 ------- 0 2.0 3.0 145 146
- 0.528889 2 3 cbr 1000 ------- 0 2.0 3.0 145 146
r 0.529244 2 3 cbr 1000 ------- 0 2.0 3.0 122 123
+ 0.529778 2 3 cbr 1000 ------- 0 2.0 3.0 146 147
- 0.529778 2 3 cbr 1000 ------- 0 2.0 3.0 146 147
r 0.530133 2 3 cbr 1000 ------- 0 2.0 3.0 123 124
r 0.530165 2 3 tcp 40 ------- 1 0.0 4.0 0 113
+ 0.530165 3 4 tcp 40 ------- 1 0.0 4.0 0 113
- 0.530165 3 4 tcp 40 ------- 1 0.0 4.0 0 113
+ 0.530667 2 3 cbr 1000 ------- 0 2.0 3.0 147 148
- 0.530667 2 3 cbr 1000 ------- 0 2.0 3.0 147 148
r 0.531022 2 3 cbr 1000 ------- 0 2.0 3.0 124 125
+ 0.531556 2 3 cbr 1000 ------- 0 2.0 3.0 148 149
- 0.531556 2 3 cbr 1000 ------- 0 2.0 3.0 148 149
r 0.531911 2 3 cbr 1000 ------- 0 2.0 3.0 125 126
+ 0.532444 2 3 cbr 1000 ------- 0 2.0 3.0 149 150
- 0.532444 2 3 cbr 1000 ------- 0 2.0 3.0 149 150
r 0.5328 2 3 cbr 1000 ------- 0 2.0 3.0 126 127
+ 0.533333 2 3 cbr 1000 ------- 0 2.0 3.0 150 151
- 0.533333 2 3 cbr 1000 ------- 0 2.0 3.0 150 151
r 0.533689 2 3 cbr 1000 ------- 0 2.0 3.0 127 128
+ 0.534222 2 3 cbr 1000 ------- 0 2.0 3.0 151 152
- 0.534222 2 3 cbr 1000 ------- 0 2.0 3.0 151 152
r 0.534578 2 3 cbr 1000 ------- 0 2.0 3.0 128 129
+ 0.535111 2 3 cbr 1000 ------- 0 2.0 3.0 152 153
- 0.535111 2 3 cbr 1000 ------- 0 2.0 3.0 152 153
r 0.535467 2 3 cbr 1000 ------- 0 2.0 3.0 129 130
+ 0.536 2 3 cbr 1000 ------- 0 2.0 3.0 153 154
- 0.536 2 3 cbr 1000 ------- 0 2.0 3.0 153 154
r 0.536356 2 3 cbr 1000 ------- 0 2.0 3.0 130 131
+ 0.536889 2 3 cbr 1000 ------- 0 2.0 3.0 154 155
- 0.536889 2 3 cbr 1000 ------- 0 2.0 3.0 154 155
r 0.537244 2 3 cbr 1000 ------- 0 2.0 3.0 131 132
+ 0.537778 2 3 cbr 1000 ------- 0 2.0 3.0 155 156
- 0.537778 2 3 cbr 1000 ------- 0 2.0 3.0 155 156
r 0.538133 2 3 cbr 1000 ------- 0 2.0 3.0 132 133
+ 0.538667 2 3 cbr 1000 ------- 0 2.0 3.0 156 157
- 0.538667 2 3 cbr 1000 ------- 0 2.0 3.0 156 157
r 0.539022 2 3 cbr 1000 ------- 0 2.0 3.0 133 134
+ 0.539556 2 3 cbr 1000 ------- 0 2.0 3.0 157 158
- 0.539556 2 3 cbr 1000 ------- 0 2.0 3.0 157 158
r 0.539911 2 3 cbr 1000 ------- 0 2.0 3.0 134 135
r 0.540197 3 4 tcp 40 ------- 1 0.0 4.0 0 113
+ 0.540197 4 3 ack 40 ------- 1 4.0 0.0 0 159
- 0.540197 4 3 ack 40 ------- 1 4.0 0.0 0 159
+ 0.540444 2 3 cbr 1000 ------- 0 2.0 3.0 158 160
- 0.540444 2 3 cbr 1000 ------- 0 2.0 3.0 158 160
r 0.5408 2 3 cbr 1000 ------- 0 2.0 3.0 135 136
+ 0.541333 2 3 cbr 1000 ------- 0 2.0 3.0 159 161
- 0.541333 2 3 cbr 1000 ------- 0 2.0 3.0 159 161
r 0.541689 2 3 cbr 1000 ------- 0 2.0 3.0 136 137
+ 0.542222 2 3 cbr 1000 ------- 0 2.0 3.0 160 162
- 0.542222 2 3 cbr 1000 ------- 0 2.0 3.0 160 162
r 0.542578 2 3 cbr 1000 ------- 0 2.0 3.0 137 138
+ 0.543111 2 3 cbr 1000 ------- 0 2.0 3.0 161 163
- 0.543111 2 3 cbr 1000 ------- 0 2.0 3.0 161 163
r 0.543467 2 3 cbr 1000 ------- 0 2.0 3.0 138 139
+ 0.544 2 3 cbr 1000 ------- 0 2.0 3.0 162 164
- 0.544 2 3 cbr 1000 ------- 0 2.0 3.0 162 164
r 0.544356 2 3 cbr 1000 ------- 0 2.0 3.0 139 140
+ 0.544889 2 3 cbr 1000 ------- 0 2.0 3.0 163 165
- 0.544889 2 3 cbr 1000 ------- 0 2.0 3.0 163 165
r 0.545244 2 3 cbr 1000 ------- 0 2.0 3.0 140 141
+ 0.545778 2 3 cbr 1000 ------- 0 2.0 3.0 164 166
- 0.545778 2 3 cbr 1000 ------- 0 2.0 3.0 164 166
r 0.546133 2 3 cbr 1000 ------- 0 2.0 3.0 141 142
+ 0.546667 2 3 cbr 1000 ------- 0 2.0 3.0 165 167
- 0.546667 2 3 cbr 1000 ------- 0 2.0 3.0 165 167
r 0.547022 2 3 cbr 1000 ------- 0 2.0 3.0 142 143
+ 0.547556 2 3 cbr 1000 ------- 0 2.0 3.0 166 168
- 0.547556 2 3 cbr 1000 ------- 0 2.0 3.0 166 168
r 0.547911 2 3 cbr 1000 ------- 0 2.0 3.0 143 144
+ 0.548444 2 3 cbr 1000 ------- 0 2.0 3.0 167 169
- 0.548444 2 3 cbr 1000 ------- 0 2.0 3.0 167 169
r 0.5488 2 3 cbr 1000 ------- 0 2.0 3.0 144 145
+ 0.549333 2 3 cbr 1000 ------- 0 2.0 3.0 168 170
- 0.549333 2 3 cbr 1000 ------- 0 2.0 3.0 168 170
r 0.549689 2 3 cbr 1000 ------- 0 2.0 3.0 145 146
+ 0.550222 2 3 cbr 1000 ------- 0 2.0 3.0 169 171
- 0.550222 2 3 cbr 1000 ------- 0 2.0 3.0 169 171
r 0.550229 4 3 ack 40 ------- 1 4.0 0.0 0 159
+ 0.550229 3 2 ack 40 ------- 1 4.0 0.0 0 159
- 0.550229 3 2 ack 40 ------- 1 4.0 0.0 0 159
r 0.550578 2 3 cbr 1000 ------- 0 2.0 3.0 146 147
+ 0.551111 2 3 cbr 1000 ------- 0 2.0 3.0 170 172
- 0.551111 2 3 cbr 1000 ------- 0 2.0 3.0 170 172
r 0.551467 2 3 cbr 1000 ------- 0 2.0 3.0 147 148
+ 0.552 2 3 cbr 1000 ------- 0 2.0 3.0 171 173
- 0.552 2 3 cbr 1000 ------- 0 2.0 3.0 171 173
r 0.552356 2 3 cbr 1000 ------- 0 2.0 3.0 148 149
+ 0.552889 2 3 cbr 1000 ------- 0 2.0 3.0 172 174
- 0.552889 2 3 cbr 1000 ------- 0 2.0 3.0 172 174
r 0.553244 2 3 cbr 1000 ------- 0 2.0 3.0 149 150
+ 0.553778 2 3 cbr 1000 ------- 0 2.0 3.0 173 175
- 0.553778 2 3 cbr 1000 ------- 0 2.0 3.0 173 175
r 0.554133 2 3 cbr 1000 ------- 0 2.0 3.0 150 151
+ 0.554667 2 3 cbr 1000 ------- 0 2.0 3.0 174 176
- 0.554667 2 3 cbr 1000 ------- 0 2.0 3.0 174 176
r 0.555022 2 3 cbr 1000 ------- 0 2.0 3.0 151 152
+ 0.555556 2 3 cbr 1000 ------- 0 2.0 3.0 175 177
- 0.555556 2 3 cbr 1000 ------- 0 2.0 3.0 175 177
r 0.555911 2 3 cbr 1000 ------- 0 2.0 3.0 152 153
+ 0.556444 2 3 cbr 1000 ------- 0 2.0 3.0 176 178
- 0.556444 2 3 cbr 1000 ------- 0 2.0 3.0 176 178
r 0.5568 2 3 cbr 1000 ------- 0 2.0 3.0 153 154
+ 0.557333 2 3 cbr 1000 ------- 0 2.0 3.0 177 179
- 0.557333 2 3 cbr 1000 ------- 0 2.0 3.0 177 179
r 0.557689 2 3 cbr 1000 ------- 0 2.0 3.0 154 155
+ 0.558222 2 3 cbr 1000 ------- 0 2.0 3.0 178 180
- 0.558222 2 3 cbr 1000 ------- 0 2.0 3.0 178 180
r 0.558578 2 3 cbr 1000 ------- 0 2.0 3.0 155 156
+ 0.559111 2 3 cbr 1000 ------- 0 2.0 3.0 179 181
- 0.559111 2 3 cbr 1000 ------- 0 2.0 3.0 179 181
r 0.559467 2 3 cbr 1000 ------- 0 2.0 3.0 156 157
+ 0.56 2 3 cbr 1000 ------- 0 2.0 3.0 180 182
- 0.56 2 3 cbr 1000 ------- 0 2.0 3.0 180 182
r 0.560356 2 3 cbr 1000 ------- 0 2.0 3.0 157 158
+ 0.560889 2 3 cbr 1000 ------- 0 2.0 3.0 181 183
- 0.560889 2 3 cbr 1000 ------- 0 2.0 3.0 181 183
r 0.561244 2 3 cbr 1000 ------- 0 2.0 3.0 158 160
+ 0.561778 2 3 cbr 1000 ------- 0 2.0 3.0 182 184
- 0.561778 2 3 cbr 1000 ------- 0 2.0 3.0 182 184
r 0.562133 2 3 cbr 1000 ------- 0 2.0 3.0 159 161
+ 0.562667 2 3 cbr 1000 ------- 0 2.0 3.0 183 185
- 0.562667 2 3 cbr 1000 ------- 0 2.0 3.0 183 185
r 0.563022 2 3 cbr 1000 ------- 0 2.0 3.0 160 162
+ 0.563556 2 3 cbr 1000 ------- 0 2.0 3.0 184 186
- 0.563556 2 3 cbr 1000 ------- 0 2.0 3.0 184 186
r 0.563911 2 3 cbr 1000 ------- 0 2.0 3.0 161 163
+ 0.564444 2 3 cbr 1000 ------- 0 2.0 3.0 185 187
- 0.564444 2 3 cbr 1000 ------- 0 2.0 3.0 185 187
r 0.5648 2 3 cbr 1000 ------- 0 2.0 3.0 162 164
+ 0.565333 2 3 cbr 1000 ------- 0 2.0 3.0 186 188
- 0.565333 2 3 cbr 1000 ------- 0 2.0 3.0 186 188
r 0.565689 2 3 cbr 1000 ------- 0 2.0 3.0 163 165
+ 0.566222 2 3 cbr 1000 ------- 0 2.0 3.0 187 189
- 0.566222 2 3 cbr 1000 ------- 0 2.0 3.0 187 189
r 0.566578 2 3 cbr 1000 ------- 0 2.0 3.0 164 166
+ 0.567111 2 3 cbr 1000 ------- 0 2.0 3.0 188 190
- 0.567111 2 3 cbr 1000 ------- 0 2.0 3.0 188 190
r 0.567467 2 3 cbr 1000 ------- 0 2.0 3.0 165 167
+ 0.568 2 3 cbr 1000 ------- 0 2.0 3.0 189 191
- 0.568 2 3 cbr 1000 ------- 0 2.0 3.0 189 191
r 0.568356 2 3 cbr 1000 ------- 0 2.0 3.0 166 168
+ 0.568889 2 3 cbr 1000 ------- 0 2.0 3.0 190 192
- 0.568889 2 3 cbr 1000 ------- 0 2.0 3.0 190 192
r 0.569244 2 3 cbr 1000 ------- 0 2.0 3.0 167 169
+ 0.569778 2 3 cbr 1000 ------- 0 2.0 3.0 191 193
- 0.569778 2 3 cbr 1000 ------- 0 2.0 3.0 191 193
r 0.570133 2 3 cbr 1000 ------- 0 2.0 3.0 168 170
r 0.570261 3 2 ack 40 ------- 1 4.0 0.0 0 159
+ 0.570261 2 0 ack 40 ------- 1 4.0 0.0 0 159
- 0.570261 2 0 ack 40 ------- 1 4.0 0.0 0 159
+ 0.570667 2 3 cbr 1000 ------- 0 2.0 3.0 192 194
- 0.570667 2 3 cbr 1000 ------- 0 2.0 3.0 192 194
r 0.571022 2 3 cbr 1000 ------- 0 2.0 3.0 169 171
+ 0.571556 2 3 cbr 1000 ------- 0 2.0 3.0 193 195
- 0.571556 2 3 cbr 1000 ------- 0 2.0 3.0 193 195
r 0.571911 2 3 cbr 1000 ------- 0 2.0 3.0 170 172
+ 0.572444 2 3 cbr 1000 ------- 0 2.0 3.0 194 196
- 0.572444 2 3 cbr 1000 ------- 0 2.0 3.0 194 196
r 0.5728 2 3 cbr 1000 ------- 0 2.0 3.0 171 173
+ 0.573333 2 3 cbr 1000 ------- 0 2.0 3.0 195 197
- 0.573333 2 3 cbr 1000 ------- 0 2.0 3.0 195 197
r 0.573689 2 3 cbr 1000 ------- 0 2.0 3.0 172 174
+ 0.574222 2 3 cbr 1000 ------- 0 2.0 3.0 196 198
- 0.574222 2 3 cbr 1000 ------- 0 2.0 3.0 196 198
r 0.574578 2 3 cbr 1000 ------- 0 2.0 3.0 173 175
+ 0.575111 2 3 cbr 1000 ------- 0 2.0 3.0 197 199
- 0.575111 2 3 cbr 1000 ------- 0 2.0 3.0 197 199
r 0.575467 2 3 cbr 1000 ------- 0 2.0 3.0 174 176
+ 0.576 2 3 cbr 1000 ------- 0 2.0 3.0 198 200
- 0.576 2 3 cbr 1000 ------- 0 2.0 3.0 198 200
r 0.576356 2 3 cbr 1000 ------- 0 2.0 3.0 175 177
+ 0.576889 2 3 cbr 1000 ------- 0 2.0 3.0 199 201
- 0.576889 2 3 cbr 1000 ------- 0 2.0 3.0 199 201
r 0.577244 2 3 cbr 1000 ------- 0 2.0 3.0 176 178
+ 0.577778 2 3 cbr 1000 ------- 0 2.0 3.0 200 202
- 0.577778 2 3 cbr 1000 ------- 0 2.0 3.0 200 202
r 0.578133 2 3 cbr 1000 ------- 0 2.0 3.0 177 179
+ 0.578667 2 3 cbr 1000 ------- 0 2.0 3.0 201 203
- 0.578667 2 3 cbr 1000 ------- 0 2.0 3.0 201 203
r 0.579022 2 3 cbr 1000 ------- 0 2.0 3.0 178 180
+ 0.579556 2 3 cbr 1000 ------- 0 2.0 3.0 202 204
- 0.579556 2 3 cbr 1000 ------- 0 2.0 3.0 202 204
r 0.579911 2 3 cbr 1000 ------- 0 2.0 3.0 179 181
r 0.580293 2 0 ack 40 ------- 1 4.0 0.0 0 159
+ 0.580293 0 2 tcp 1040 ------- 1 0.0 4.0 1 205
- 0.580293 0 2 tcp 1040 ------- 1 0.0 4.0 1 205
+ 0.580293 0 2 tcp 1040 ------- 1 0.0 4.0 2 206
+ 0.580444 2 3 cbr 1000 ------- 0 2.0 3.0 203 207
- 0.580444 2 3 cbr 1000 ------- 0 2.0 3.0 203 207
r 0.5808 2 3 cbr 1000 ------- 0 2.0 3.0 180 182
- 0.581125 0 2 tcp 1040 ------- 1 0.0 4.0 2 206
+ 0.581333 2 3 cbr 1000 ------- 0 2.0 3.0 204 208
- 0.581333 2 3 cbr 1000 ------- 0 2.0 3.0 204 208
r 0.581689 2 3 cbr 1000 ------- 0 2.0 3.0 181 183
+ 0.582222 2 3 cbr 1000 ------- 0 2.0 3.0 205 209
- 0.582222 2 3 cbr 1000 ------- 0 2.0 3.0 205 209
r 0.582578 2 3 cbr 1000 ------- 0 2.0 3.0 182 184
+ 0.583111 2 3 cbr 1000 ------- 0 2.0 3.0 206 210