+ 0.4 2 3 cbr 1000 ------- 0 2.0 3.0 0 0
- 0.4 2 3 cbr 1000 ------- 0 2.0 3.0 0 0
+ 0.404 2 3 cbr 1000 ------- 0 2.0 3.0 1 1
- 0.404 2 3 cbr 1000 ------- 0 2.0 3.0 1 1
+ 0.408 2 3 cbr 1000 ------- 0 2.0 3.0 2 2
- 0.408 2 3 cbr 1000 ------- 0 2.0 3.0 2 2
+ 0.412 2 3 cbr 1000 ------- 0 2.0 3.0 3 3
- 0.412 2 3 cbr 1000 ------- 0 2.0 3.0 3 3
+ 0.416 2 3 cbr 1000 ------- 0 2.0 3.0 4 4
- 0.416 2 3 cbr 1000 ------- 0 2.0 3.0 4 4
+ 0.42 2 3 cbr 1000 ------- 0 2.0 3.0 5 5
- 0.42 2 3 cbr 1000 ------- 0 2.0 3.0 5 5
r 0.4208 2 3 cbr 1000 ------- 0 2.0 3.0 0 0
+ 0.424 2 3 cbr 1000 ------- 0 2.0 3.0 6 6
- 0.424 2 3 cbr 1000 ------- 0 2.0 3.0 6 6
r 0.4248 2 3 cbr 1000 ------- 0 2.0 3.0 1 1
+ 0.428 2 3 cbr 1000 ------- 0 2.0 3.0 7 7
- 0.428 2 3 cbr 1000 ------- 0 2.0 3.0 7 7
r 0.4288 2 3 cbr 1000 ------- 0 2.0 3.0 2 2
+ 0.432 2 3 cbr 1000 ------- 0 2.0 3.0 8 8
- 0.432 2 3 cbr 1000 ------- 0 2.0 3.0 8 8
r 0.4328 2 3 cbr 1000 ------- 0 2.0 3.0 3 3
+ 0.436 2 3 cbr 1000 ------- 0 2.0 3.0 9 9
- 0.436 2 3 cbr 1000 ------- 0 2.0 3.0 9 9
r 0.4368 2 3 cbr 1000 ------- 0 2.0 3.0 4 4
+ 0.44 2 3 cbr 1000 ------- 0 2.0 3.0 10 10
- 0.44 2 3 cbr 1000 ------- 0 2.0 3.0 10 10
r 0.4408 2 3 cbr 1000 ------- 0 2.0 3.0 5 5
+ 0.444 2 3 cbr 1000 ------- 0 2.0 3.0 11 11
- 0.444 2 3 cbr 1000 ------- 0 2.0 3.0 11 11
r 0.4448 2 3 cbr 1000 ------- 0 2.0 3.0 6 6
+ 0.448 2 3 cbr 1000 ------- 0 2.0 3.0 12 12
- 0.448 2 3 cbr 1000 ------- 0 2.0 3.0 12 12
r 0.4488 2 3 cbr 1000 ------- 0 2.0 3.0 7 7
+ 0.452 2 3 cbr 1000 ------- 0 2.0 3.0 13 13
- 0.452 2 3 cbr 1000 ------- 0 2.0 3.0 13 13
r 0.4528 2 3 cbr 1000 ------- 0 2.0 3.0 8 8
+ 0.456 2 3 cbr 1000 ------- 0 2.0 3.0 14 14
- 0.456 2 3 cbr 1000 ------- 0 2.0 3.0 14 14
r 0.4568 2 3 cbr 1000 ------- 0 2.0 3.0 9 9
+ 0.46 2 3 cbr 1000 ------- 0 2.0 3.0 15 15
- 0.46 2 3 cbr 1000 ------- 0 2.0 3.0 15 15
r 0.4608 2 3 cbr 1000 ------- 0 2.0 3.0 10 10
+ 0.464 2 3 cbr 1000 ------- 0 2.0 3.0 16 16
- 0.464 2 3 cbr 1000 ------- 0 2.0 3.0 16 16
r 0.4648 2 3 cbr 1000 ------- 0 2.0 3.0 11 11
+ 0.468 2 3 cbr 1000 ------- 0 2.0 3.0 17 17
- 0.468 2 3 cbr 1000 ------- 0 2.0 3.0 17 17
r 0.4688 2 3 cbr 1000 ------- 0 2.0 3.0 12 12
+ 0.472 2 3 cbr 1000 ------- 0 2.0 3.0 18 18
- 0.472 2 3 cbr 1000 ------- 0 2.0 3.0 18 18
r 0.4728 2 3 cbr 1000 ------- 0 2.0 3.0 13 13
+ 0.476 2 3 cbr 1000 ------- 0 2.0 3.0 19 19
- 0.476 2 3 cbr 1000 ------- 0 2.0 3.0 19 19
r 0.4768 2 3 cbr 1000 ------- 0 2.0 3.0 14 14
+ 0.48 2 3 cbr 1000 ------- 0 2.0 3.0 20 20
- 0.48 2 3 cbr 1000 ------- 0 2.0 3.0 20 20
r 0.4808 2 3 cbr 1000 ------- 0 2.0 3.0 15 15
+ 0.484 2 3 cbr 1000 ------- 0 2.0 3.0 21 21
- 0.484 2 3 cbr 1000 ------- 0 2.0 3.0 21 21
r 0.4848 2 3 cbr 1000 ------- 0 2.0 3.0 16 16
+ 0.488 2 3 cbr 1000 ------- 0 2.0 3.0 22 22
- 0.488 2 3 cbr 1000 ------- 0 2.0 3.0 22 22
r 0.4888 2 3 cbr 1000 ------- 0 2.0 3.0 17 17
+ 0.492 2 3 cbr 1000 ------- 0 2.0 3.0 23 23
- 0.492 2 3 cbr 1000 ------- 0 2.0 3.0 23 23
r 0.4928 2 3 cbr 1000 ------- 0 2.0 3.0 18 18
+ 0.496 2 3 cbr 1000 ------- 0 2.0 3.0 24 24
- 0.496 2 3 cbr 1000 ------- 0 2.0 3.0 24 24
r 0.4968 2 3 cbr 1000 ------- 0 2.0 3.0 19 19
+ 0.5 0 2 tcp 40 ------- 1 0.0 4.0 0 25
- 0.5 0 2 tcp 40 ------- 1 0.0 4.0 0 25
+ 0.5 2 3 cbr 1000 ------- 0 2.0 3.0 25 26
- 0.5 2 3 cbr 1000 ------- 0 2.0 3.0 25 26
r 0.5008 2 3 cbr 1000 ------- 0 2.0 3.0 20 20
+ 0.504 2 3 cbr 1000 ------- 0 2.0 3.0 26 27
- 0.504 2 3 cbr 1000 ------- 0 2.0 3.0 26 27
r 0.5048 2 3 cbr 1000 ------- 0 2.0 3.0 21 21
+ 0.508 2 3 cbr 1000 ------- 0 2.0 3.0 27 28
- 0.508 2 3 cbr 1000 ------- 0 2.0 3.0 27 28
r 0.5088 2 3 cbr 1000 ------- 0 2.0 3.0 22 22
r 0.510032 0 2 tcp 40 ------- 1 0.0 4.0 0 25
+ 0.510032 2 3 tcp 40 ------- 1 0.0 4.0 0 25
- 0.510032 2 3 tcp 40 ------- 1 0.0 4.0 0 25
+ 0.512 2 3 cbr 1000 ------- 0 2.0 3.0 28 29
- 0.512 2 3 cbr 1000 ------- 0 2.0 3.0 28 29
r 0.5128 2 3 cbr 1000 ------- 0 2.0 3.0 23 23
+ 0.516 2 3 cbr 1000 ------- 0 2.0 3.0 29 30
- 0.516 2 3 cbr 1000 ------- 0 2.0 3.0 29 30
r 0.5168 2 3 cbr 1000 ------- 0 2.0 3.0 24 24
+ 0.52 2 3 cbr 1000 ------- 0 2.0 3.0 30 31
- 0.52 2 3 cbr 1000 ------- 0 2.0 3.0 30 31
r 0.5208 2 3 cbr 1000 ------- 0 2.0 3.0 25 26
+ 0.524 2 3 cbr 1000 ------- 0 2.0 3.0 31 32
- 0.524 2 3 cbr 1000 ------- 0 2.0 3.0 31 32
r 0.5248 2 3 cbr 1000 ------- 0 2.0 3.0 26 27
+ 0.528 2 3 cbr 1000 ------- 0 2.0 3.0 32 33
- 0.528 2 3 cbr 1000 ------- 0 2.0 3.0 32 33
r 0.5288 2 3 cbr 1000 ------- 0 2.0 3.0 27 28
r 0.530064 2 3 tcp 40 ------- 1 0.0 4.0 0 25
+ 0.530064 3 4 tcp 40 ------- 1 0.0 4.0 0 25
- 0.530064 3 4 tcp 40 ------- 1 0.0 4.0 0 25
+ 0.532 2 3 cbr 1000 ------- 0 2.0 3.0 33 34
- 0.532 2 3 cbr 1000 ------- 0 2.0 3.0 33 34
r 0.5328 2 3 cbr 1000 ------- 0 2.0 3.0 28 29
+ 0.536 2 3 cbr 1000 ------- 0 2.0 3.0 34 35
- 0.536 2 3 cbr 1000 ------- 0 2.0 3.0 34 35
r 0.5368 2 3 cbr 1000 ------- 0 2.0 3.0 29 30
+ 0.54 2 3 cbr 1000 ------- 0 2.0 3.0 35 36
- 0.54 2 3 cbr 1000 ------- 0 2.0 3.0 35 36
r 0.540096 3 4 tcp 40 ------- 1 0.0 4.0 0 25
+ 0.540096 4 3 ack 40 ------- 1 4.0 0.0 0 37
- 0.540096 4 3 ack 40 ------- 1 4.0 0.0 0 37
r 0.5408 2 3 cbr 1000 ------- 0 2.0 3.0 30 31
+ 0.544 2 3 cbr 1000 ------- 0 2.0 3.0 36 38
- 0.544 2 3 cbr 1000 ------- 0 2.0 3.0 36 38
r 0.5448 2 3 cbr 1000 ------- 0 2.0 3.0 31 32
+ 0.548 2 3 cbr 1000 ------- 0 2.0 3.0 37 39
- 0.548 2 3 cbr 1000 ------- 0 2.0 3.0 37 39
r 0.5488 2 3 cbr 1000 ------- 0 2.0 3.0 32 33
r 0.550128 4 3 ack 40 ------- 1 4.0 0.0 0 37
+ 0.550128 3 2 ack 40 ------- 1 4.0 0.0 0 37
- 0.550128 3 2 ack 40 ------- 1 4.0 0.0 0 37
+ 0.552 2 3 cbr 1000 ------- 0 2.0 3.0 38 40
- 0.552 2 3 cbr 1000 ------- 0 2.0 3.0 38 40
r 0.5528 2 3 cbr 1000 ------- 0 2.0 3.0 33 34
+ 0.556 2 3 cbr 1000 ------- 0 2.0 3.0 39 41
- 0.556 2 3 cbr 1000 ------- 0 2.0 3.0 39 41
r 0.5568 2 3 cbr 1000 ------- 0 2.0 3.0 34 35
+ 0.56 2 3 cbr 1000 ------- 0 2.0 3.0 40 42
- 0.56 2 3 cbr 1000 ------- 0 2.0 3.0 40 42
r 0.5608 2 3 cbr 1000 ------- 0 2.0 3.0 35 36
+ 0.564 2 3 cbr 1000 ------- 0 2.0 3.0 41 43
- 0.564 2 3 cbr 1000 ------- 0 2.0 3.0 41 43
r 0.5648 2 3 cbr 1000 ------- 0 2.0 3.0 36 38
+ 0.568 2 3 cbr 1000 ------- 0 2.0 3.0 42 44
- 0.568 2 3 cbr 1000 ------- 0 2.0 3.0 42 44
r 0.5688 2 3 cbr 1000 ------- 0 2.0 3.0 37 39
r 0.57016 3 2 ack 40 ------- 1 4.0 0.0 0 37
+ 0.57016 2 0 ack 40 ------- 1 4.0 0.0 0 37
- 0.57016 2 0 ack 40 ------- 1 4.0 0.0 0 37
+ 0.572 2 3 cbr 1000 ------- 0 2.0 3.0 43 45
- 0.572 2 3 cbr 1000 ------- 0 2.0 3.0 43 45
r 0.5728 2 3 cbr 1000 ------- 0 2.0 3.0 38 40
+ 0.576 2 3 cbr 1000 ------- 0 2.0 3.0 44 46
- 0.576 2 3 cbr 1000 ------- 0 2.0 3.0 44 46
r 0.5768 2 3 cbr 1000 ------- 0 2.0 3.0 39 41
+ 0.58 2 3 cbr 1000 ------- 0 2.0 3.0 45 47
- 0.58 2 3 cbr 1000 ------- 0 2.0 3.0 45 47
r 0.580192 2 0 ack 40 ------- 1 4.0 0.0 0 37
+ 0.580192 0 2 tcp 1040 ------- 1 0.0 4.0 1 48
- 0.580192 0 2 tcp 1040 ------- 1 0.0 4.0 1 48
+ 0.580192 0 2 tcp 1040 ------- 1 0.0 4.0 2 49
r 0.5808 2 3 cbr 1000 ------- 0 2.0 3.0 40 42
- 0.581024 0 2 tcp 1040 ------- 1 0.0 4.0 2 49
+ 0.584 2 3 cbr 1000 ------- 0 2.0 3.0 46 50
- 0.584 2 3 cbr 1000 ------- 0 2.0 3.0 46 50
r 0.5848 2 3 cbr 1000 ------- 0 2.0 3.0 41 43
+ 0.588 2 3 cbr 1000 ------- 0 2.0 3.0 47 51
- 0.588 2 3 cbr 1000 ------- 0 2.0 3.0 47 51
r 0.5888 2 3 cbr 1000 ------- 0 2.0 3.0 42 44
r 0.591024 0 2 tcp 1040 ------- 1 0.0 4.0 1 48
+ 0.591024 2 3 tcp 1040 ------- 1 0.0 4.0 1 48
- 0.591024 2 3 tcp 1040 ------- 1 0.0 4.0 1 48
r 0.591856 0 2 tcp 1040 ------- 1 0.0 4.0 2 49
+ 0.591856 2 3 tcp 1040 ------- 1 0.0 4.0 2 49
- 0.591856 2 3 tcp 1040 ------- 1 0.0 4.0 2 49
+ 0.592 2 3 cbr 1000 ------- 0 2.0 3.0 48 52
- 0.592688 2 3 cbr 1000 ------- 0 2.0 3.0 48 52
r 0.5928 2 3 cbr 1000 ------- 0 2.0 3.0 43 45
+ 0.596 2 3 cbr 1000 ------- 0 2.0 3.0 49 53
- 0.596 2 3 cbr 1000 ------- 0 2.0 3.0 49 53
r 0.5968 2 3 cbr 1000 ------- 0 2.0 3.0 44 46
+ 0.6 2 3 cbr 1000 ------- 0 2.0 3.0 50 54
- 0.6 2 3 cbr 1000 ------- 0 2.0 3.0 50 54
r 0.6008 2 3 cbr 1000 ------- 0 2.0 3.0 45 47
+ 0.604 2 3 cbr 1000 ------- 0 2.0 3.0 51 55
- 0.604 2 3 cbr 1000 ------- 0 2.0 3.0 51 55
r 0.6048 2 3 cbr 1000 ------- 0 2.0 3.0 46 50
+ 0.608 2 3 cbr 1000 ------- 0 2.0 3.0 52 56
- 0.608 2 3 cbr 1000 ------- 0 2.0 3.0 52 56
r 0.6088 2 3 cbr 1000 ------- 0 2.0 3.0 47 51
r 0.611856 2 3 tcp 1040 ------- 1 0.0 4.0 1 48
+ 0.611856 3 4 tcp 1040 ------- 1 0.0 4.0 1 48
- 0.611856 3 4 tcp 1040 ------- 1 0.0 4.0 1 48
+ 0.612 2 3 cbr 1000 ------- 0 2.0 3.0 53 57
- 0.612 2 3 cbr 1000 ------- 0 2.0 3.0 53 57
r 0.612688 2 3 tcp 1040 ------- 1 0.0 4.0 2 49
+ 0.612688 3 4 tcp 1040 ------- 1 0.0 4.0 2 49
- 0.612688 3 4 tcp 1040 ------- 1 0.0 4.0 2 49
r 0.613488 2 3 cbr 1000 ------- 0 2.0 3.0 48 52
+ 0.616 2 3 cbr 1000 ------- 0 2.0 3.0 54 58
- 0.616 2 3 cbr 1000 ------- 0 2.0 3.0 54 58
r 0.6168 2 3 cbr 1000 ------- 0 2.0 3.0 49 53
+ 0.62 2 3 cbr 1000 ------- 0 2.0 3.0 55 59
- 0.62 2 3 cbr 1000 ------- 0 2.0 3.0 55 59
r 0.6208 2 3 cbr 1000 ------- 0 2.0 3.0 50 54
r 0.622688 3 4 tcp 1040 ------- 1 0.0 4.0 1 48
+ 0.622688 4 3 ack 40 ------- 1 4.0 0.0 1 60
- 0.622688 4 3 ack 40 ------- 1 4.0 0.0 1 60
r 0.62352 3 4 tcp 1040 ------- 1 0.0 4.0 2 49
+ 0.62352 4 3 ack 40 ------- 1 4.0 0.0 2 61
- 0.62352 4 3 ack 40 ------- 1 4.0 0.0 2 61
+ 0.624 2 3 cbr 1000 ------- 0 2.0 3.0 56 62
- 0.624 2 3 cbr 1000 ------- 0 2.0 3.0 56 62
r 0.6248 2 3 cbr 1000 ------- 0 2.0 3.0 51 55
+ 0.628 2 3 cbr 1000 ------- 0 2.0 3.0 57 63
- 0.628 2 3 cbr 1000 ------- 0 2.0 3.0 57 63
r 0.6288 2 3 cbr 1000 ------- 0 2.0 3.0 52 56
+ 0.632 2 3 cbr 1000 ------- 0 2.0 3.0 58 64
- 0.632 2 3 cbr 1000 ------- 0 2.0 3.0 58 64
r 0.63272 4 3 ack 40 ------- 1 4.0 0.0 1 60
+ 0.63272 3 2 ack 40 ------- 1 4.0 0.0 1 60
- 0.63272 3 2 ack 40 ------- 1 4.0 0.0 1 60
r 0.6328 2 3 cbr 1000 ------- 0 2.0 3.0 53 57
r 0.633552 4 3 ack 40 ------- 1 4.0 0.0 2 61
+ 0.633552 3 2 ack 40 ------- 1 4.0 0.0 2 61
- 0.633552 3 2 ack 40 ------- 1 4.0 0.0 2 61
+ 0.636 2 3 cbr 1000 ------- 0 2.0 3.0 59 65
- 0.636 2 3 cbr 1000 ------- 0 2.0 3.0 59 65
r 0.6368 2 3 cbr 1000 ------- 0 2.0 3.0 54 58
+ 0.64 2 3 cbr 1000 ------- 0 2.0 3.0 60 66
- 0.64 2 3 cbr 1000 ------- 0 2.0 3.0 60 66
r 0.6408 2 3 cbr 1000 ------- 0 2.0 3.0 55 59
+ 0.644 2 3 cbr 1000 ------- 0 2.0 3.0 61 67
- 0.644 2 3 cbr 1000 ------- 0 2.0 3.0 61 67
r 0.6448 2 3 cbr 1000 ------- 0 2.0 3.0 56 62
+ 0.648 2 3 cbr 1000 ------- 0 2.0 3.0 62 68
- 0.648 2 3 cbr 1000 ------- 0 2.0 3.0 62 68
r 0.6488 2 3 cbr 1000 ------- 0 2.0 3.0 57 63
+ 0.652 2 3 cbr 1000 ------- 0 2.0 3.0 63 69
- 0.652 2 3 cbr 1000 ------- 0 2.0 3.0 63 69
r 0.652752 3 2 ack 40 ------- 1 4.0 0.0 1 60
+ 0.652752 2 0 ack 40 ------- 1 4.0 0.0 1 60
- 0.652752 2 0 ack 40 ------- 1 4.0 0.0 1 60
r 0.6528 2 3 cbr 1000 ------- 0 2.0 3.0 58 64
r 0.653584 3 2 ack 40 ------- 1 4.0 0.0 2 61
+ 0.653584 2 0 ack 40 ------- 1 4.0 0.0 2 61
- 0.653584 2 0 ack 40 ------- 1 4.0 0.0 2 61
+ 0.656 2 3 cbr 1000 ------- 0 2.0 3.0 64 70
- 0.656 2 3 cbr 1000 ------- 0 2.0 3.0 64 70
r 0.6568 2 3 cbr 1000 ------- 0 2.0 3.0 59 65
+ 0.66 2 3 cbr 1000 ------- 0 2.0 3.0 65 71
- 0.66 2 3 cbr 1000 ------- 0 2.0 3.0 65 71
r 0.6608 2 3 cbr 1000 ------- 0 2.0 3.0 60 66
r 0.662784 2 0 ack 40 ------- 1 4.0 0.0 1 60
+ 0.662784 0 2 tcp 1040 ------- 1 0.0 4.0 3 72
- 0.662784 0 2 tcp 1040 ------- 1 0.0 4.0 3 72
+ 0.662784 0 2 tcp 1040 ------- 1 0.0 4.0 4 73
r 0.663616 2 0 ack 40 ------- 1 4.0 0.0 2 61
+ 0.663616 0 2 tcp 1040 ------- 1 0.0 4.0 5 74
+ 0.663616 0 2 tcp 1040 ------- 1 0.0 4.0 6 75
- 0.663616 0 2 tcp 1040 ------- 1 0.0 4.0 4 73
+ 0.664 2 3 cbr 1000 ------- 0 2.0 3.0 66 76
- 0.664 2 3 cbr 1000 ------- 0 2.0 3.0 66 76
- 0.664448 0 2 tcp 1040 ------- 1 0.0 4.0 5 74
r 0.6648 2 3 cbr 1000 ------- 0 2.0 3.0 61 67
- 0.66528 0 2 tcp 1040 ------- 1 0.0 4.0 6 75
+ 0.668 2 3 cbr 1000 ------- 0 2.0 3.0 67 77
- 0.668 2 3 cbr 1000 ------- 0 2.0 3.0 67 77
r 0.6688 2 3 cbr 1000 ------- 0 2.0 3.0 62 68
+ 0.672 2 3 cbr 1000 ------- 0 2.0 3.0 68 78
- 0.672 2 3 cbr 1000 ------- 0 2.0 3.0 68 78
r 0.6728 2 3 cbr 1000 ------- 0 2.0 3.0 63 69
r 0.673616 0 2 tcp 1040 ------- 1 0.0 4.0 3 72
+ 0.673616 2 3 tcp 1040 ------- 1 0.0 4.0 3 72
- 0.673616 2 3 tcp 1040 ------- 1 0.0 4.0 3 72
r 0.674448 0 2 tcp 1040 ------- 1 0.0 4.0 4 73
+ 0.674448 2 3 tcp 1040 ------- 1 0.0 4.0 4 73
- 0.674448 2 3 tcp 1040 ------- 1 0.0 4.0 4 73
r 0.67528 0 2 tcp 1040 ------- 1 0.0 4.0 5 74
+ 0.67528 2 3 tcp 1040 ------- 1 0.0 4.0 5 74
- 0.67528 2 3 tcp 1040 ------- 1 0.0 4.0 5 74
+ 0.676 2 3 cbr 1000 ------- 0 2.0 3.0 69 79
r 0.676112 0 2 tcp 1040 ------- 1 0.0 4.0 6 75
+ 0.676112 2 3 tcp 1040 ------- 1 0.0 4.0 6 75
- 0.676112 2 3 cbr 1000 ------- 0 2.0 3.0 69 79
r 0.6768 2 3 cbr 1000 ------- 0 2.0 3.0 64 70
- 0.676912 2 3 tcp 1040 ------- 1 0.0 4.0 6 75
+ 0.68 2 3 cbr 1000 ------- 0 2.0 3.0 70 80
- 0.68 2 3 cbr 1000 ------- 0 2.0 3.0 70 80
r 0.6808 2 3 cbr 1000 ------- 0 2.0 3.0 65 71
+ 0.684 2 3 cbr 1000 ------- 0 2.0 3.0 71 81
- 0.684 2 3 cbr 1000 ------- 0 2.0 3.0 71 81
r 0.6848 2 3 cbr 1000 ------- 0 2.0 3.0 66 76
+ 0.688 2 3 cbr 1000 ------- 0 2.0 3.0 72 82
- 0.688 2 3 cbr 1000 ------- 0 2.0 3.0 72 82
r 0.6888 2 3 cbr 1000 ------- 0 2.0 3.0 67 77
+ 0.692 2 3 cbr 1000 ------- 0 2.0 3.0 73 83
- 0.692 2 3 cbr 1000 ------- 0 2.0 3.0 73 83
r 0.6928 2 3 cbr 1000 ------- 0 2.0 3.0 68 78
r 0.694448 2 3 tcp 1040 ------- 1 0.0 4.0 3 72
+ 0.694448 3 4 tcp 1040 ------- 1 0.0 4.0 3 72
- 0.694448 3 4 tcp 1040 ------- 1 0.0 4.0 3 72
r 0.69528 2 3 tcp 1040 ------- 1 0.0 4.0 4 73
+ 0.69528 3 4 tcp 1040 ------- 1 0.0 4.0 4 73
- 0.69528 3 4 tcp 1040 ------- 1 0.0 4.0 4 73
+ 0.696 2 3 cbr 1000 ------- 0 2.0 3.0 74 84
- 0.696 2 3 cbr 1000 ------- 0 2.0 3.0 74 84
r 0.696112 2 3 tcp 1040 ------- 1 0.0 4.0 5 74
+ 0.696112 3 4 tcp 1040 ------- 1 0.0 4.0 5 74
- 0.696112 3 4 tcp 1040 ------- 1 0.0 4.0 5 74
r 0.696912 2 3 cbr 1000 ------- 0 2.0 3.0 69 79
r 0.697744 2 3 tcp 1040 ------- 1 0.0 4.0 6 75
+ 0.697744 3 4 tcp 1040 ------- 1 0.0 4.0 6 75
- 0.697744 3 4 tcp 1040 ------- 1 0.0 4.0 6 75
+ 0.7 2 3 cbr 1000 ------- 0 2.0 3.0 75 85
- 0.7 2 3 cbr 1000 ------- 0 2.0 3.0 75 85
r 0.7008 2 3 cbr 1000 ------- 0 2.0 3.0 70 80
+ 0.704 2 3 cbr 1000 ------- 0 2.0 3.0 76 86
- 0.704 2 3 cbr 1000 ------- 0 2.0 3.0 76 86
r 0.7048 2 3 cbr 1000 ------- 0 2.0 3.0 71 81
r 0.70528 3 4 tcp 1040 ------- 1 0.0 4.0 3 72
+ 0.70528 4 3 ack 40 ------- 1 4.0 0.0 3 87
- 0.70528 4 3 ack 40 ------- 1 4.0 0.0 3 87
r 0.706112 3 4 tcp 1040 ------- 1 0.0 4.0 4 73
+ 0.706112 4 3 ack 40 ------- 1 4.0 0.0 4 88
- 0.706112 4 3 ack 40 ------- 1 4.0 0.0 4 88
r 0.706944 3 4 tcp 1040 ------- 1 0.0 4.0 5 74
+ 0.706944 4 3 ack 40 ------- 1 4.0 0.0 5 89
- 0.706944 4 3 ack 40 ------- 1 4.0 0.0 5 89
+ 0.708 2 3 cbr 1000 ------- 0 2.0 3.0 77 90
- 0.708 2 3 cbr 1000 ------- 0 2.0 3.0 77 90
r 0.708576 3 4 tcp 1040 ------- 1 0.0 4.0 6 75
+ 0.708576 4 3 ack 40 ------- 1 4.0 0.0 6 91
- 0.708576 4 3 ack 40 ------- 1 4.0 0.0 6 91
r 0.7088 2 3 cbr 1000 ------- 0 2.0 3.0 72 82
+ 0.712 2 3 cbr 1000 ------- 0 2.0 3.0 78 92
- 0.712 2 3 cbr 1000 ------- 0 2.0 3.0 78 92
r 0.7128 2 3 cbr 1000 ------- 0 2.0 3.0 73 83
r 0.715312 4 3 ack 40 ------- 1 4.0 0.0 3 87
+ 0.715312 3 2 ack 40 ------- 1 4.0 0.0 3 87
- 0.715312 3 2 ack 40 ------- 1 4.0 0.0 3 87
+ 0.716 2 3 cbr 1000 ------- 0 2.0 3.0 79 93
- 0.716 2 3 cbr 1000 ------- 0 2.0 3.0 79 93
r 0.716144 4 3 ack 40 ------- 1 4.0 0.0 4 88
+ 0.716144 3 2 ack 40 ------- 1 4.0 0.0 4 88
- 0.716144 3 2 ack 40 ------- 1 4.0 0.0 4 88
r 0.7168 2 3 cbr 1000 ------- 0 2.0 3.0 74 84
r 0.716976 4 3 ack 40 ------- 1 4.0 0.0 5 89
+ 0.716976 3 2 ack 40 ------- 1 4.0 0.0 5 89
- 0.716976 3 2 ack 40 ------- 1 4.0 0.0 5 89
r 0.718608 4 3 ack 40 ------- 1 4.0 0.0 6 91
+ 0.718608 3 2 ack 40 ------- 1 4.0 0.0 6 91
- 0.718608 3 2 ack 40 ------- 1 4.0 0.0 6 91
+ 0.72 2 3 cbr 1000 ------- 0 2.0 3.0 80 94
- 0.72 2 3 cbr 1000 ------- 0 2.0 3.0 80 94
r 0.7208 2 3 cbr 1000 ------- 0 2.0 3.0 75 85
+ 0.724 2 3 cbr 1000 ------- 0 2.0 3.0 81 95
- 0.724 2 3 cbr 1000 ------- 0 2.0 3.0 81 95
r 0.7248 2 3 cbr 1000 ------- 0 2.0 3.0 76 86
+ 0.728 2 3 cbr 1000 ------- 0 2.0 3.0 82 96
- 0.728 2 3 cbr 1000 ------- 0 2.0 3.0 82 96
r 0.7288 2 3 cbr 1000 ------- 0 2.0 3.0 77 90
+ 0.732 2 3 cbr 1000 ------- 0 2.0 3.0 83 97
- 0.732 2 3 cbr 1000 ------- 0 2.0 3.0 83 97
r 0.7328 2 3 cbr 1000 ------- 0 2.0 3.0 78 92
r 0.735344 3 2 ack 40 ------- 1 4.0 0.0 3 87
+ 0.735344 2 0 ack 40 ------- 1 4.0 0.0 3 87
- 0.735344 2 0 ack 40 ------- 1 4.0 0.0 3 87
+ 0.736 2 3 cbr 1000 ------- 0 2.0 3.0 84 98
- 0.736 2 3 cbr 1000 ------- 0 2.0 3.0 84 98
r 0.736176 3 2 ack 40 ------- 1 4.0 0.0 4 88
+ 0.736176 2 0 ack 40 ------- 1 4.0 0.0 4 88
- 0.736176 2 0 ack 40 ------- 1 4.0 0.0 4 88
r 0.7368 2 3 cbr 1000 ------- 0 2.0 3.0 79 93
r 0.737008 3 2 ack 40 ------- 1 4.0 0.0 5 89
+ 0.737008 2 0 ack 40 ------- 1 4.0 0.0 5 89
- 0.737008 2 0 ack 40 ------- 1 4.0 0.0 5 89
r 0.73864 3 2 ack 40 ------- 1 4.0 0.0 6 91
+ 0.73864 2 0 ack 40 ------- 1 4.0 0.0 6 91
- 0.73864 2 0 ack 40 ------- 1 4.0 0.0 6 91
+ 0.74 2 3 cbr 1000 ------- 0 2.0 3.0 85 99
- 0.74 2 3 cbr 1000 ------- 0 2.0 3.0 85 99
r 0.7408 2 3 cbr 1000 ------- 0 2.0 3.0 80 94
+ 0.744 2 3 cbr 1000 ------- 0 2.0 3.0 86 100
- 0.744 2 3 cbr 1000 ------- 0 2.0 3.0 86 100
r 0.7448 2 3 cbr 1000 ------- 0 2.0 3.0 81 95
r 0.745376 2 0 ack 40 ------- 1 4.0 0.0 3 87
+ 0.745376 0 2 tcp 1040 ------- 1 0.0 4.0 7 101
- 0.745376 0 2 tcp 1040 ------- 1 0.0 4.0 7 101
+ 0.745376 0 2 tcp 1040 ------- 1 0.0 4.0 8 102
r 0.746208 2 0 ack 40 ------- 1 4.0 0.0 4 88
+ 0.746208 0 2 tcp 1040 ------- 1 0.0 4.0 9 103
+ 0.746208 0 2 tcp 1040 ------- 1 0.0 4.0 10 104
- 0.746208 0 2 tcp 1040 ------- 1 0.0 4.0 8 102
r 0.74704 2 0 ack 40 ------- 1 4.0 0.0 5 89
+ 0.74704 0 2 tcp 1040 ------- 1 0.0 4.0 11 105
+ 0.74704 0 2 tcp 1040 ------- 1 0.0 4.0 12 106
- 0.74704 0 2 tcp 1040 ------- 1 0.0 4.0 9 103
- 0.747872 0 2 tcp 1040 ------- 1 0.0 4.0 10 104
+ 0.748 2 3 cbr 1000 ------- 0 2.0 3.0 87 107
- 0.748 2 3 cbr 1000 ------- 0 2.0 3.0 87 107
r 0.748672 2 0 ack 40 ------- 1 4.0 0.0 6 91
+ 0.748672 0 2 tcp 1040 ------- 1 0.0 4.0 13 108
+ 0.748672 0 2 tcp 1040 ------- 1 0.0 4.0 14 109
- 0.748704 0 2 tcp 1040 ------- 1 0.0 4.0 11 105
r 0.7488 2 3 cbr 1000 ------- 0 2.0 3.0 82 96
- 0.749536 0 2 tcp 1040 ------- 1 0.0 4.0 12 106
- 0.750368 0 2 tcp 1040 ------- 1 0.0 4.0 13 108
- 0.7512 0 2 tcp 1040 ------- 1 0.0 4.0 14 109
+ 0.752 2 3 cbr 1000 ------- 0 2.0 3.0 88 110
- 0.752 2 3 cbr 1000 ------- 0 2.0 3.0 88 110
r 0.7528 2 3 cbr 1000 ------- 0 2.0 3.0 83 97
+ 0.756 2 3 cbr 1000 ------- 0 2.0 3.0 89 111
- 0.756 2 3 cbr 1000 ------- 0 2.0 3.0 89 111
r 0.756208 0 2 tcp 1040 ------- 1 0.0 4.0 7 101
+ 0.756208 2 3 tcp 1040 ------- 1 0.0 4.0 7 101
r 0.7568 2 3 cbr 1000 ------- 0 2.0 3.0 84 98
- 0.7568 2 3 tcp 1040 ------- 1 0.0 4.0 7 101
r 0.75704 0 2 tcp 1040 ------- 1 0.0 4.0 8 102
+ 0.75704 2 3 tcp 1040 ------- 1 0.0 4.0 8 102
- 0.757632 2 3 tcp 1040 ------- 1 0.0 4.0 8 102
r 0.757872 0 2 tcp 1040 ------- 1 0.0 4.0 9 103
+ 0.757872 2 3 tcp 1040 ------- 1 0.0 4.0 9 103
- 0.758464 2 3 tcp 1040 ------- 1 0.0 4.0 9 103
r 0.758704 0 2 tcp 1040 ------- 1 0.0 4.0 10 104
+ 0.758704 2 3 tcp 1040 ------- 1 0.0 4.0 10 104
- 0.759296 2 3 tcp 1040 ------- 1 0.0 4.0 10 104
r 0.759536 0 2 tcp 1040 ------- 1 0.0 4.0 11 105
+ 0.759536 2 3 tcp 1040 ------- 1 0.0 4.0 11 105
+ 0.76 2 3 cbr 1000 ------- 0 2.0 3.0 90 112
- 0.760128 2 3 tcp 1040 ------- 1 0.0 4.0 11 105
r 0.760368 0 2 tcp 1040 ------- 1 0.0 4.0 12 106
+ 0.760368 2 3 tcp 1040 ------- 1 0.0 4.0 12 106
r 0.7608 2 3 cbr 1000 ------- 0 2.0 3.0 85 99
- 0.76096 2 3 cbr 1000 ------- 0 2.0 3.0 90 112
r 0.7612 0 2 tcp 1040 ------- 1 0.0 4.0 13 108
+ 0.7612 2 3 tcp 1040 ------- 1 0.0 4.0 13 108
- 0.76176 2 3 tcp 1040 ------- 1 0.0 4.0 12 106
r 0.762032 0 2 tcp 1040 ------- 1 0.0 4.0 14 109
+ 0.762032 2 3 tcp 1040 ------- 1 0.0 4.0 14 109
- 0.762592 2 3 tcp 1040 ------- 1 0.0 4.0 13 108
- 0.763424 2 3 tcp 1040 ------- 1 0.0 4.0 14 109
+ 0.764 2 3 cbr 1000 ------- 0 2.0 3.0 91 113
- 0.764256 2 3 cbr 1000 ------- 0 2.0 3.0 91 113
r 0.7648 2 3 cbr 1000 ------- 0 2.0 3.0 86 100
+ 0.768 2 3 cbr 1000 ------- 0 2.0 3.0 92 114
- 0.768 2 3 cbr 1000 ------- 0 2.0 3.0 92 114
r 0.7688 2 3 cbr 1000 ------- 0 2.0 3.0 87 107
+ 0.772 2 3 cbr 1000 ------- 0 2.0 3.0 93 115
- 0.772 2 3 cbr 1000 ------- 0 2.0 3.0 93 115
r 0.7728 2 3 cbr 1000 ------- 0 2.0 3.0 88 110
+ 0.776 2 3 cbr 1000 ------- 0 2.0 3.0 94 116
- 0.776 2 3 cbr 1000 ------- 0 2.0 3.0 94 116
r 0.7768 2 3 cbr 1000 ------- 0 2.0 3.0 89 111
r 0.777632 2 3 tcp 1040 ------- 1 0.0 4.0 7 101
+ 0.777632 3 4 tcp 1040 ------- 1 0.0 4.0 7 101
- 0.777632 3 4 tcp 1040 ------- 1 0.0 4.0 7 101
r 0.778464 2 3 tcp 1040 ------- 1 0.0 4.0 8 102
+ 0.778464 3 4 tcp 1040 ------- 1 0.0 4.0 8 102
- 0.778464 3 4 tcp 1040 ------- 1 0.0 4.0 8 102
r 0.779296 2 3 tcp 1040 ------- 1 0.0 4.0 9 103
+ 0.779296 3 4 tcp 1040 ------- 1 0.0 4.0 9 103
- 0.779296 3 4 tcp 1040 ------- 1 0.0 4.0 9 103
+ 0.78 2 3 cbr 1000 ------- 0 2.0 3.0 95 117
- 0.78 2 3 cbr 1000 ------- 0 2.0 3.0 95 117
r 0.780128 2 3 tcp 1040 ------- 1 0.0 4.0 10 104
+ 0.780128 3 4 tcp 1040 ------- 1 0.0 4.0 10 104
- 0.780128 3 4 tcp 1040 ------- 1 0.0 4.0 10 104
r 0.78096 2 3 tcp 1040 ------- 1 0.0 4.0 11 105
+ 0.78096 3 4 tcp 1040 ------- 1 0.0 4.0 11 105
- 0.78096 3 4 tcp 1040 ------- 1 0.0 4.0 11 105
r 0.78176 2 3 cbr 1000 ------- 0 2.0 3.0 90 112
r 0.782592 2 3 tcp 1040 ------- 1 0.0 4.0 12 106
+ 0.782592 3 4 tcp 1040 ------- 1 0.0 4.0 12 106
- 0.782592 3 4 tcp 1040 ------- 1 0.0 4.0 12 106
r 0.783424 2 3 tcp 1040 ------- 1 0.0 4.0 13 108
+ 0.783424 3 4 tcp 1040 ------- 1 0.0 4.0 13 108
- 0.783424 3 4 tcp 1040 ------- 1 0.0 4.0 13 108
+ 0.784 2 3 cbr 1000 ------- 0 2.0 3.0 96 118
- 0.784 2 3 cbr 1000 ------- 0 2.0 3.0 96 118
r 0.784256 2 3 tcp 1040 ------- 1 0.0 4.0 14 109
+ 0.784256 3 4 tcp 1040 ------- 1 0.0 4.0 14 109
- 0.784256 3 4 tcp 1040 ------- 1 0.0 4.0 14 109
r 0.785056 2 3 cbr 1000 ------- 0 2.0 3.0 91 113
+ 0.788 2 3 cbr 1000 ------- 0 2.0 3.0 97 119
- 0.788 2 3 cbr 1000 ------- 0 2.0 3.0 97 119
r 0.788464 3 4 tcp 1040 ------- 1 0.0 4.0 7 101
+ 0.788464 4 3 ack 40 ------- 1 4.0 0.0 7 120
- 0.788464 4 3 ack 40 ------- 1 4.0 0.0 7 120
r 0.7888 2 3 cbr 1000 ------- 0 2.0 3.0 92 114
r 0.789296 3 4 tcp 1040 ------- 1 0.0 4.0 8 102
+ 0.789296 4 3 ack 40 ------- 1 4.0 0.0 8 121
- 0.789296 4 3 ack 40 ------- 1 4.0 0.0 8 121
r 0.790128 3 4 tcp 1040 ------- 1 0.0 4.0 9 103
+ 0.790128 4 3 ack 40 ------- 1 4.0 0.0 9 122
- 0.790128 4 3 ack 40 ------- 1 4.0 0.0 9 122
r 0.79096 3 4 tcp 1040 ------- 1 0.0 4.0 10 104
+ 0.79096 4 3 ack 40 ------- 1 4.0 0.0 10 123
- 0.79096 4 3 ack 40 ------- 1 4.0 0.0 10 123
r 0.791792 3 4 tcp 1040 ------- 1 0.0 4.0 11 105
+ 0.791792 4 3 ack 40 ------- 1 4.0 0.0 11 124
- 0.791792 4 3 ack 40 ------- 1 4.0 0.0 11 124
+ 0.792 2 3 cbr 1000 ------- 0 2.0 3.0 98 125
- 0.792 2 3 cbr 1000 ------- 0 2.0 3.0 98 125
r 0.7928 2 3 cbr 1000 ------- 0 2.0 3.0 93 115
r 0.793424 3 4 tcp 1040 ------- 1 0.0 4.0 12 106
+ 0.793424 4 3 ack 40 ------- 1 4.0 0.0 12 126
- 0.793424 4 3 ack 40 ------- 1 4.0 0.0 12 126
r 0.794256 3 4 tcp 1040 ------- 1 0.0 4.0 13 108
+ 0.794256 4 3 ack 40 ------- 1 4.0 0.0 13 127
- 0.794256 4 3 ack 40 ------- 1 4.0 0.0 13 127
r 0.795088 3 4 tcp 1040 ------- 1 0.0 4.0 14 109
+ 0.795088 4 3 ack 40 ------- 1 4.0 0.0 14 128
- 0.795088 4 3 ack 40 ------- 1 4.0 0.0 14 128
+ 0.796 2 3 cbr 1000 ------- 0 2.0 3.0 99 129
- 0.796 2 3 cbr 1000 ------- 0 2.0 3.0 99 129
r 0.7968 2 3 cbr 1000 ------- 0 2.0 3.0 94 116
r 0.798496 4 3 ack 40 ------- 1 4.0 0.0 7 120
+ 0.798496 3 2 ack 40 ------- 1 4.0 0.0 7 120
- 0.798496 3 2 ack 40 ------- 1 4.0 0.0 7 120
r 0.799328 4 3 ack 40 ------- 1 4.0 0.0 8 121
+ 0.799328 3 2 ack 40 ------- 1 4.0 0.0 8 121
- 0.799328 3 2 ack 40 ------- 1 4.0 0.0 8 121
+ 0.8 2 3 cbr 1000 ------- 0 2.0 3.0 100 130
- 0.8 2 3 cbr 1000 ------- 0 2.0 3.0 100 130
r 0.80016 4 3 ack 40 ------- 1 4.0 0.0 9 122
+ 0.80016 3 2 ack 40 ------- 1 4.0 0.0 9 122
- 0.80016 3 2 ack 40 ------- 1 4.0 0.0 9 122
r 0.8008 2 3 cbr 1000 ------- 0 2.0 3.0 95 117
r 0.800992 4 3 ack 40 ------- 1 4.0 0.0 10 123
+ 0.800992 3 2 ack 40 ------- 1 4.0 0.0 10 123
- 0.800992 3 2 ack 40 ------- 1 4.0 0.0 10 123
r 0.801824 4 3 ack 40 ------- 1 4.0 0.0 11 124
+ 0.801824 3 2 ack 40 ------- 1 4.0 0.0 11 124
- 0.801824 3 2 ack 40 ------- 1 4.0 0.0 11 124
r 0.803456 4 3 ack 40 ------- 1 4.0 0.0 12 126
+ 0.803456 3 2 ack 40 ------- 1 4.0 0.0 12 126
- 0.803456 3 2 ack 40 ------- 1 4.0 0.0 12 126
+ 0.804 2 3 cbr 1000 ------- 0 2.0 3.0 101 131
- 0.804 2 3 cbr 1000 ------- 0 2.0 3.0 101 131
r 0.804288 4 3 ack 40 ------- 1 4.0 0.0 13 127
+ 0.804288 3 2 ack 40 ------- 1 4.0 0.0 13 127
- 0.804288 3 2 ack 40 ------- 1 4.0 0.0 13 127
r 0.8048 2 3 cbr 1000 ------- 0 2.0 3.0 96 118
r 0.80512 4 3 ack 40 ------- 1 4.0 0.0 14 128
+ 0.80512 3 2 ack 40 ------- 1 4.0 0.0 14 128
- 0.80512 3 2 ack 40 ------- 1 4.0 0.0 14 128
+ 0.808 2 3 cbr 1000 ------- 0 2.0 3.0 102 132
- 0.808 2 3 cbr 1000 ------- 0 2.0 3.0 102 132
r 0.8088 2 3 cbr 1000 ------- 0 2.0 3.0 97 119
+ 0.812 2 3 cbr 1000 ------- 0 2.0 3.0 103 133
- 0.812 2 3 cbr 1000 ------- 0 2.0 3.0 103 133
r 0.8128 2 3 cbr 1000 ------- 0 2.0 3.0 98 125
+ 0.816 2 3 cbr 1000 ------- 0 2.0 3.0 104 134
- 0.816 2 3 cbr 1000 ------- 0 2.0 3.0 104 134
r 0.8168 2 3 cbr 1000 ------- 0 2.0 3.0 99 129
r 0.818528 3 2 ack 40 ------- 1 4.0 0.0 7 120
+ 0.818528 2 0 ack 40 ------- 1 4.0 0.0 7 120
- 0.818528 2 0 ack 40 ------- 1 4.0 0.0 7 120
r 0.81936 3 2 ack 40 ------- 1 4.0 0.0 8 121
+ 0.81936 2 0 ack 40 ------- 1 4.0 0.0 8 121
- 0.81936 2 0 ack 40 ------- 1 4.0 0.0 8 121
+ 0.82 2 3 cbr 1000 ------- 0 2.0 3.0 105 135
- 0.82 2 3 cbr 1000 ------- 0 2.0 3.0 105 135
r 0.820192 3 2 ack 40 ------- 1 4.0 0.0 9 122
+ 0.820192 2 0 ack 40 ------- 1 4.0 0.0 9 122
- 0.820192 2 0 ack 40 ------- 1 4.0 0.0 9 122
r 0.8208 2 3 cbr 1000 ------- 0 2.0 3.0 100 130
r 0.821024 3 2 ack 40 ------- 1 4.0 0.0 10 123
+ 0.821024 2 0 ack 40 ------- 1 4.0 0.0 10 123
- 0.821024 2 0 ack 40 ------- 1 4.0 0.0 10 123
r 0.821856 3 2 ack 40 ------- 1 4.0 0.0 11 124
+ 0.821856 2 0 ack 40 ------- 1 4.0 0.0 11 124
- 0.821856 2 0 ack 40 ------- 1 4.0 0.0 11 124
r 0.823488 3 2 ack 40 ------- 1 4.0 0.0 12 126
+ 0.823488 2 0 ack 40 ------- 1 4.0 0.0 12 126
- 0.823488 2 0 ack 40 ------- 1 4.0 0.0 12 126
+ 0.824 2 3 cbr 1000 ------- 0 2.0 3.0 106 136
- 0.824 2 3 cbr 1000 ------- 0 2.0 3.0 106 136
r 0.82432 3 2 ack 40 ------- 1 4.0 0.0 13 127
+ 0.82432 2 0 ack 40 ------- 1 4.0 0.0 13 127
- 0.82432 2 0 ack 40 ------- 1 4.0 0.0 13 127
r 0.8248 2 3 cbr 1000 ------- 0 2.0 3.0 101 131
r 0.825152 3 2 ack 40 ------- 1 4.0 0.0 14 128
+ 0.825152 2 0 ack 40 ------- 1 4.0 0.0 14 128
- 0.825152 2 0 ack 40 ------- 1 4.0 0.0 14 128
+ 0.828 2 3 cbr 1000 ------- 0 2.0 3.0 107 137
- 0.828 2 3 cbr 1000 ------- 0 2.0 3.0 107 137
r 0.82856 2 0 ack 40 ------- 1 4.0 0.0 7 120
+ 0.82856 0 2 tcp 1040 ------- 1 0.0 4.0 15 138
- 0.82856 0 2 tcp 1040 ------- 1 0.0 4.0 15 138
+ 0.82856 0 2 tcp 1040 ------- 1 0.0 4.0 16 139
r 0.8288 2 3 cbr 1000 ------- 0 2.0 3.0 102 132
r 0.829392 2 0 ack 40 ------- 1 4.0 0.0 8 121
+ 0.829392 0 2 tcp 1040 ------- 1 0.0 4.0 17 140
+ 0.829392 0 2 tcp 1040 ------- 1 0.0 4.0 18 141
- 0.829392 0 2 tcp 1040 ------- 1 0.0 4.0 16 139
r 0.830224 2 0 ack 40 ------- 1 4.0 0.0 9 122
+ 0.830224 0 2 tcp 1040 ------- 1 0.0 4.0 19 142
+ 0.830224 0 2 tcp 1040 ------- 1 0.0 4.0 20 143
- 0.830224 0 2 tcp 1040 ------- 1 0.0 4.0 17 140
r 0.831056 2 0 ack 40 ------- 1 4.0 0.0 10 123
+ 0.831056 0 2 tcp 1040 ------- 1 0.0 4.0 21 144
+ 0.831056 0 2 tcp 1040 ------- 1 0.0 4.0 22 145
- 0.831056 0 2 tcp 1040 ------- 1 0.0 4.0 18 141
r 0.831888 2 0 ack 40 ------- 1 4.0 0.0 11 124
+ 0.831888 0 2 tcp 1040 ------- 1 0.0 4.0 23 146
+ 0.831888 0 2 tcp 1040 ------- 1 0.0 4.0 24 147
- 0.831888 0 2 tcp 1040 ------- 1 0.0 4.0 19 142
+ 0.832 2 3 cbr 1000 ------- 0 2.0 3.0 108 148
- 0.832 2 3 cbr 1000 ------- 0 2.0 3.0 108 148
- 0.83272 0 2 tcp 1040 ------- 1 0.0 4.0 20 143
r 0.8328 2 3 cbr 1000 ------- 0 2.0 3.0 103 133
r 0.83352 2 0 ack 40 ------- 1 4.0 0.0 12 126
+ 0.83352 0 2 tcp 1040 ------- 1 0.0 4.0 25 149
+ 0.83352 0 2 tcp 1040 ------- 1 0.0 4.0 26 150
- 0.833552 0 2 tcp 1040 ------- 1 0.0 4.0 21 144
r 0.834352 2 0 ack 40 ------- 1 4.0 0.0 13 127
+ 0.834352 0 2 tcp 1040 ------- 1 0.0 4.0 27 151
+ 0.834352 0 2 tcp 1040 ------- 1 0.0 4.0 28 152
- 0.834384 0 2 tcp 1040 ------- 1 0.0 4.0 22 145
r 0.835184 2 0 ack 40 ------- 1 4.0 0.0 14 128
+ 0.835184 0 2 tcp 1040 ------- 1 0.0 4.0 29 153
+ 0.835184 0 2 tcp 1040 ------- 1 0.0 4.0 30 154
- 0.835216 0 2 tcp 1040 ------- 1 0.0 4.0 23 146
+ 0.836 2 3 cbr 1000 ------- 0 2.0 3.0 109 155
- 0.836 2 3 cbr 1000 ------- 0 2.0 3.0 109 155
- 0.836048 0 2 tcp 1040 ------- 1 0.0 4.0 24 147
r 0.8368 2 3 cbr 1000 ------- 0 2.0 3.0 104 134
- 0.83688 0 2 tcp 1040 ------- 1 0.0 4.0 25 149
- 0.837712 0 2 tcp 1040 ------- 1 0.0 4.0 26 150
- 0.838544 0 2 tcp 1040 ------- 1 0.0 4.0 27 151
- 0.839376 0 2 tcp 1040 ------- 1 0.0 4.0 28 152
r 0.839392 0 2 tcp 1040 ------- 1 0.0 4.0 15 138
+ 0.839392 2 3 tcp 1040 ------- 1 0.0 4.0 15 138
- 0.839392 2 3 tcp 1040 ------- 1 0.0 4.0 15 138
+ 0.84 2 3 cbr 1000 ------- 0 2.0 3.0 110 156
- 0.840208 0 2 tcp 1040 ------- 1 0.0 4.0 29 153
r 0.840224 0 2 tcp 1040 ------- 1 0.0 4.0 16 139
+ 0.840224 2 3 tcp 1040 ------- 1 0.0 4.0 16 139
- 0.840224 2 3 cbr 1000 ------- 0 2.0 3.0 110 156
r 0.8408 2 3 cbr 1000 ------- 0 2.0 3.0 105 135
- 0.841024 2 3 tcp 1040 ------- 1 0.0 4.0 16 139
- 0.84104 0 2 tcp 1040 ------- 1 0.0 4.0 30 154
r 0.841056 0 2 tcp 1040 ------- 1 0.0 4.0 17 140
+ 0.841056 2 3 tcp 1040 ------- 1 0.0 4.0 17 140
- 0.841856 2 3 tcp 1040 ------- 1 0.0 4.0 17 140
r 0.841888 0 2 tcp 1040 ------- 1 0.0 4.0 18 141
+ 0.841888 2 3 tcp 1040 ------- 1 0.0 4.0 18 141
- 0.842688 2 3 tcp 1040 ------- 1 0.0 4.0 18 141
r 0.84272 0 2 tcp 1040 ------- 1 0.0 4.0 19 142
+ 0.84272 2 3 tcp 1040 ------- 1 0.0 4.0 19 142
- 0.84352 2 3 tcp 1040 ------- 1 0.0 4.0 19 142
r 0.843552 0 2 tcp 1040 ------- 1 0.0 4.0 20 143
+ 0.843552 2 3 tcp 1040 ------- 1 0.0 4.0 20 143
+ 0.844 2 3 cbr 1000 ------- 0 2.0 3.0 111 157
- 0.844352 2 3 tcp 1040 ------- 1 0.0 4.0 20 143
r 0.844384 0 2 tcp 1040 ------- 1 0.0 4.0 21 144