+ 0.4 2 3 cbr 1000 ------- 0 2.0 3.0 0 0
- 0.4 2 3 cbr 1000 ------- 0 2.0 3.0 0 0
+ 0.401143 2 3 cbr 1000 ------- 0 2.0 3.0 1 1
- 0.401143 2 3 cbr 1000 ------- 0 2.0 3.0 1 1
+ 0.402286 2 3 cbr 1000 ------- 0 2.0 3.0 2 2
- 0.402286 2 3 cbr 1000 ------- 0 2.0 3.0 2 2
+ 0.403429 2 3 cbr 1000 ------- 0 2.0 3.0 3 3
- 0.403429 2 3 cbr 1000 ------- 0 2.0 3.0 3 3
+ 0.404571 2 3 cbr 1000 ------- 0 2.0 3.0 4 4
- 0.404571 2 3 cbr 1000 ------- 0 2.0 3.0 4 4
+ 0.405714 2 3 cbr 1000 ------- 0 2.0 3.0 5 5
- 0.405714 2 3 cbr 1000 ------- 0 2.0 3.0 5 5
+ 0.406857 2 3 cbr 1000 ------- 0 2.0 3.0 6 6
- 0.406857 2 3 cbr 1000 ------- 0 2.0 3.0 6 6
+ 0.408 2 3 cbr 1000 ------- 0 2.0 3.0 7 7
- 0.408 2 3 cbr 1000 ------- 0 2.0 3.0 7 7
+ 0.409143 2 3 cbr 1000 ------- 0 2.0 3.0 8 8
- 0.409143 2 3 cbr 1000 ------- 0 2.0 3.0 8 8
+ 0.410286 2 3 cbr 1000 ------- 0 2.0 3.0 9 9
- 0.410286 2 3 cbr 1000 ------- 0 2.0 3.0 9 9
+ 0.411429 2 3 cbr 1000 ------- 0 2.0 3.0 10 10
- 0.411429 2 3 cbr 1000 ------- 0 2.0 3.0 10 10
+ 0.412571 2 3 cbr 1000 ------- 0 2.0 3.0 11 11
- 0.412571 2 3 cbr 1000 ------- 0 2.0 3.0 11 11
+ 0.413714 2 3 cbr 1000 ------- 0 2.0 3.0 12 12
- 0.413714 2 3 cbr 1000 ------- 0 2.0 3.0 12 12
+ 0.414857 2 3 cbr 1000 ------- 0 2.0 3.0 13 13
- 0.414857 2 3 cbr 1000 ------- 0 2.0 3.0 13 13
+ 0.416 2 3 cbr 1000 ------- 0 2.0 3.0 14 14
- 0.416 2 3 cbr 1000 ------- 0 2.0 3.0 14 14
+ 0.417143 2 3 cbr 1000 ------- 0 2.0 3.0 15 15
- 0.417143 2 3 cbr 1000 ------- 0 2.0 3.0 15 15
+ 0.418286 2 3 cbr 1000 ------- 0 2.0 3.0 16 16
- 0.418286 2 3 cbr 1000 ------- 0 2.0 3.0 16 16
+ 0.419429 2 3 cbr 1000 ------- 0 2.0 3.0 17 17
- 0.419429 2 3 cbr 1000 ------- 0 2.0 3.0 17 17
+ 0.420571 2 3 cbr 1000 ------- 0 2.0 3.0 18 18
- 0.420571 2 3 cbr 1000 ------- 0 2.0 3.0 18 18
r 0.4208 2 3 cbr 1000 ------- 0 2.0 3.0 0 0
+ 0.421714 2 3 cbr 1000 ------- 0 2.0 3.0 19 19
- 0.421714 2 3 cbr 1000 ------- 0 2.0 3.0 19 19
r 0.421943 2 3 cbr 1000 ------- 0 2.0 3.0 1 1
+ 0.422857 2 3 cbr 1000 ------- 0 2.0 3.0 20 20
- 0.422857 2 3 cbr 1000 ------- 0 2.0 3.0 20 20
r 0.423086 2 3 cbr 1000 ------- 0 2.0 3.0 2 2
+ 0.424 2 3 cbr 1000 ------- 0 2.0 3.0 21 21
- 0.424 2 3 cbr 1000 ------- 0 2.0 3.0 21 21
r 0.424229 2 3 cbr 1000 ------- 0 2.0 3.0 3 3
+ 0.425143 2 3 cbr 1000 ------- 0 2.0 3.0 22 22
- 0.425143 2 3 cbr 1000 ------- 0 2.0 3.0 22 22
r 0.425371 2 3 cbr 1000 ------- 0 2.0 3.0 4 4
+ 0.426286 2 3 cbr 1000 ------- 0 2.0 3.0 23 23
- 0.426286 2 3 cbr 1000 ------- 0 2.0 3.0 23 23
r 0.426514 2 3 cbr 1000 ------- 0 2.0 3.0 5 5
+ 0.427429 2 3 cbr 1000 ------- 0 2.0 3.0 24 24
- 0.427429 2 3 cbr 1000 ------- 0 2.0 3.0 24 24
r 0.427657 2 3 cbr 1000 ------- 0 2.0 3.0 6 6
+ 0.428571 2 3 cbr 1000 ------- 0 2.0 3.0 25 25
- 0.428571 2 3 cbr 1000 ------- 0 2.0 3.0 25 25
r 0.4288 2 3 cbr 1000 ------- 0 2.0 3.0 7 7
+ 0.429714 2 3 cbr 1000 ------- 0 2.0 3.0 26 26
- 0.429714 2 3 cbr 1000 ------- 0 2.0 3.0 26 26
r 0.429943 2 3 cbr 1000 ------- 0 2.0 3.0 8 8
+ 0.430857 2 3 cbr 1000 ------- 0 2.0 3.0 27 27
- 0.430857 2 3 cbr 1000 ------- 0 2.0 3.0 27 27
r 0.431086 2 3 cbr 1000 ------- 0 2.0 3.0 9 9
+ 0.432 2 3 cbr 1000 ------- 0 2.0 3.0 28 28
- 0.432 2 3 cbr 1000 ------- 0 2.0 3.0 28 28
r 0.432229 2 3 cbr 1000 ------- 0 2.0 3.0 10 10
+ 0.433143 2 3 cbr 1000 ------- 0 2.0 3.0 29 29
- 0.433143 2 3 cbr 1000 ------- 0 2.0 3.0 29 29
r 0.433371 2 3 cbr 1000 ------- 0 2.0 3.0 11 11
+ 0.434286 2 3 cbr 1000 ------- 0 2.0 3.0 30 30
- 0.434286 2 3 cbr 1000 ------- 0 2.0 3.0 30 30
r 0.434514 2 3 cbr 1000 ------- 0 2.0 3.0 12 12
+ 0.435429 2 3 cbr 1000 ------- 0 2.0 3.0 31 31
- 0.435429 2 3 cbr 1000 ------- 0 2.0 3.0 31 31
r 0.435657 2 3 cbr 1000 ------- 0 2.0 3.0 13 13
+ 0.436571 2 3 cbr 1000 ------- 0 2.0 3.0 32 32
- 0.436571 2 3 cbr 1000 ------- 0 2.0 3.0 32 32
r 0.4368 2 3 cbr 1000 ------- 0 2.0 3.0 14 14
+ 0.437714 2 3 cbr 1000 ------- 0 2.0 3.0 33 33
- 0.437714 2 3 cbr 1000 ------- 0 2.0 3.0 33 33
r 0.437943 2 3 cbr 1000 ------- 0 2.0 3.0 15 15
+ 0.438857 2 3 cbr 1000 ------- 0 2.0 3.0 34 34
- 0.438857 2 3 cbr 1000 ------- 0 2.0 3.0 34 34
r 0.439086 2 3 cbr 1000 ------- 0 2.0 3.0 16 16
+ 0.44 2 3 cbr 1000 ------- 0 2.0 3.0 35 35
- 0.44 2 3 cbr 1000 ------- 0 2.0 3.0 35 35
r 0.440229 2 3 cbr 1000 ------- 0 2.0 3.0 17 17
+ 0.441143 2 3 cbr 1000 ------- 0 2.0 3.0 36 36
- 0.441143 2 3 cbr 1000 ------- 0 2.0 3.0 36 36
r 0.441371 2 3 cbr 1000 ------- 0 2.0 3.0 18 18
+ 0.442286 2 3 cbr 1000 ------- 0 2.0 3.0 37 37
- 0.442286 2 3 cbr 1000 ------- 0 2.0 3.0 37 37
r 0.442514 2 3 cbr 1000 ------- 0 2.0 3.0 19 19
+ 0.443429 2 3 cbr 1000 ------- 0 2.0 3.0 38 38
- 0.443429 2 3 cbr 1000 ------- 0 2.0 3.0 38 38
r 0.443657 2 3 cbr 1000 ------- 0 2.0 3.0 20 20
+ 0.444571 2 3 cbr 1000 ------- 0 2.0 3.0 39 39
- 0.444571 2 3 cbr 1000 ------- 0 2.0 3.0 39 39
r 0.4448 2 3 cbr 1000 ------- 0 2.0 3.0 21 21
+ 0.445714 2 3 cbr 1000 ------- 0 2.0 3.0 40 40
- 0.445714 2 3 cbr 1000 ------- 0 2.0 3.0 40 40
r 0.445943 2 3 cbr 1000 ------- 0 2.0 3.0 22 22
+ 0.446857 2 3 cbr 1000 ------- 0 2.0 3.0 41 41
- 0.446857 2 3 cbr 1000 ------- 0 2.0 3.0 41 41
r 0.447086 2 3 cbr 1000 ------- 0 2.0 3.0 23 23
+ 0.448 2 3 cbr 1000 ------- 0 2.0 3.0 42 42
- 0.448 2 3 cbr 1000 ------- 0 2.0 3.0 42 42
r 0.448229 2 3 cbr 1000 ------- 0 2.0 3.0 24 24
+ 0.449143 2 3 cbr 1000 ------- 0 2.0 3.0 43 43
- 0.449143 2 3 cbr 1000 ------- 0 2.0 3.0 43 43
r 0.449371 2 3 cbr 1000 ------- 0 2.0 3.0 25 25
+ 0.450286 2 3 cbr 1000 ------- 0 2.0 3.0 44 44
- 0.450286 2 3 cbr 1000 ------- 0 2.0 3.0 44 44
r 0.450514 2 3 cbr 1000 ------- 0 2.0 3.0 26 26
+ 0.451429 2 3 cbr 1000 ------- 0 2.0 3.0 45 45
- 0.451429 2 3 cbr 1000 ------- 0 2.0 3.0 45 45
r 0.451657 2 3 cbr 1000 ------- 0 2.0 3.0 27 27
+ 0.452571 2 3 cbr 1000 ------- 0 2.0 3.0 46 46
- 0.452571 2 3 cbr 1000 ------- 0 2.0 3.0 46 46
r 0.4528 2 3 cbr 1000 ------- 0 2.0 3.0 28 28
+ 0.453714 2 3 cbr 1000 ------- 0 2.0 3.0 47 47
- 0.453714 2 3 cbr 1000 ------- 0 2.0 3.0 47 47
r 0.453943 2 3 cbr 1000 ------- 0 2.0 3.0 29 29
+ 0.454857 2 3 cbr 1000 ------- 0 2.0 3.0 48 48
- 0.454857 2 3 cbr 1000 ------- 0 2.0 3.0 48 48
r 0.455086 2 3 cbr 1000 ------- 0 2.0 3.0 30 30
+ 0.456 2 3 cbr 1000 ------- 0 2.0 3.0 49 49
- 0.456 2 3 cbr 1000 ------- 0 2.0 3.0 49 49
r 0.456229 2 3 cbr 1000 ------- 0 2.0 3.0 31 31
+ 0.457143 2 3 cbr 1000 ------- 0 2.0 3.0 50 50
- 0.457143 2 3 cbr 1000 ------- 0 2.0 3.0 50 50
r 0.457371 2 3 cbr 1000 ------- 0 2.0 3.0 32 32
+ 0.458286 2 3 cbr 1000 ------- 0 2.0 3.0 51 51
- 0.458286 2 3 cbr 1000 ------- 0 2.0 3.0 51 51
r 0.458514 2 3 cbr 1000 ------- 0 2.0 3.0 33 33
+ 0.459429 2 3 cbr 1000 ------- 0 2.0 3.0 52 52
- 0.459429 2 3 cbr 1000 ------- 0 2.0 3.0 52 52
r 0.459657 2 3 cbr 1000 ------- 0 2.0 3.0 34 34
+ 0.460571 2 3 cbr 1000 ------- 0 2.0 3.0 53 53
- 0.460571 2 3 cbr 1000 ------- 0 2.0 3.0 53 53
r 0.4608 2 3 cbr 1000 ------- 0 2.0 3.0 35 35
+ 0.461714 2 3 cbr 1000 ------- 0 2.0 3.0 54 54
- 0.461714 2 3 cbr 1000 ------- 0 2.0 3.0 54 54
r 0.461943 2 3 cbr 1000 ------- 0 2.0 3.0 36 36
+ 0.462857 2 3 cbr 1000 ------- 0 2.0 3.0 55 55
- 0.462857 2 3 cbr 1000 ------- 0 2.0 3.0 55 55
r 0.463086 2 3 cbr 1000 ------- 0 2.0 3.0 37 37
+ 0.464 2 3 cbr 1000 ------- 0 2.0 3.0 56 56
- 0.464 2 3 cbr 1000 ------- 0 2.0 3.0 56 56
r 0.464229 2 3 cbr 1000 ------- 0 2.0 3.0 38 38
+ 0.465143 2 3 cbr 1000 ------- 0 2.0 3.0 57 57
- 0.465143 2 3 cbr 1000 ------- 0 2.0 3.0 57 57
r 0.465371 2 3 cbr 1000 ------- 0 2.0 3.0 39 39
+ 0.466286 2 3 cbr 1000 ------- 0 2.0 3.0 58 58
- 0.466286 2 3 cbr 1000 ------- 0 2.0 3.0 58 58
r 0.466514 2 3 cbr 1000 ------- 0 2.0 3.0 40 40
+ 0.467429 2 3 cbr 1000 ------- 0 2.0 3.0 59 59
- 0.467429 2 3 cbr 1000 ------- 0 2.0 3.0 59 59
r 0.467657 2 3 cbr 1000 ------- 0 2.0 3.0 41 41
+ 0.468571 2 3 cbr 1000 ------- 0 2.0 3.0 60 60
- 0.468571 2 3 cbr 1000 ------- 0 2.0 3.0 60 60
r 0.4688 2 3 cbr 1000 ------- 0 2.0 3.0 42 42
+ 0.469714 2 3 cbr 1000 ------- 0 2.0 3.0 61 61
- 0.469714 2 3 cbr 1000 ------- 0 2.0 3.0 61 61
r 0.469943 2 3 cbr 1000 ------- 0 2.0 3.0 43 43
+ 0.470857 2 3 cbr 1000 ------- 0 2.0 3.0 62 62
- 0.470857 2 3 cbr 1000 ------- 0 2.0 3.0 62 62
r 0.471086 2 3 cbr 1000 ------- 0 2.0 3.0 44 44
+ 0.472 2 3 cbr 1000 ------- 0 2.0 3.0 63 63
- 0.472 2 3 cbr 1000 ------- 0 2.0 3.0 63 63
r 0.472229 2 3 cbr 1000 ------- 0 2.0 3.0 45 45
+ 0.473143 2 3 cbr 1000 ------- 0 2.0 3.0 64 64
- 0.473143 2 3 cbr 1000 ------- 0 2.0 3.0 64 64
r 0.473371 2 3 cbr 1000 ------- 0 2.0 3.0 46 46
+ 0.474286 2 3 cbr 1000 ------- 0 2.0 3.0 65 65
- 0.474286 2 3 cbr 1000 ------- 0 2.0 3.0 65 65
r 0.474514 2 3 cbr 1000 ------- 0 2.0 3.0 47 47
+ 0.475429 2 3 cbr 1000 ------- 0 2.0 3.0 66 66
- 0.475429 2 3 cbr 1000 ------- 0 2.0 3.0 66 66
r 0.475657 2 3 cbr 1000 ------- 0 2.0 3.0 48 48
+ 0.476571 2 3 cbr 1000 ------- 0 2.0 3.0 67 67
- 0.476571 2 3 cbr 1000 ------- 0 2.0 3.0 67 67
r 0.4768 2 3 cbr 1000 ------- 0 2.0 3.0 49 49
+ 0.477714 2 3 cbr 1000 ------- 0 2.0 3.0 68 68
- 0.477714 2 3 cbr 1000 ------- 0 2.0 3.0 68 68
r 0.477943 2 3 cbr 1000 ------- 0 2.0 3.0 50 50
+ 0.478857 2 3 cbr 1000 ------- 0 2.0 3.0 69 69
- 0.478857 2 3 cbr 1000 ------- 0 2.0 3.0 69 69
r 0.479086 2 3 cbr 1000 ------- 0 2.0 3.0 51 51
+ 0.48 2 3 cbr 1000 ------- 0 2.0 3.0 70 70
- 0.48 2 3 cbr 1000 ------- 0 2.0 3.0 70 70
r 0.480229 2 3 cbr 1000 ------- 0 2.0 3.0 52 52
+ 0.481143 2 3 cbr 1000 ------- 0 2.0 3.0 71 71
- 0.481143 2 3 cbr 1000 ------- 0 2.0 3.0 71 71
r 0.481371 2 3 cbr 1000 ------- 0 2.0 3.0 53 53
+ 0.482286 2 3 cbr 1000 ------- 0 2.0 3.0 72 72
- 0.482286 2 3 cbr 1000 ------- 0 2.0 3.0 72 72
r 0.482514 2 3 cbr 1000 ------- 0 2.0 3.0 54 54
+ 0.483429 2 3 cbr 1000 ------- 0 2.0 3.0 73 73
- 0.483429 2 3 cbr 1000 ------- 0 2.0 3.0 73 73
r 0.483657 2 3 cbr 1000 ------- 0 2.0 3.0 55 55
+ 0.484571 2 3 cbr 1000 ------- 0 2.0 3.0 74 74
- 0.484571 2 3 cbr 1000 ------- 0 2.0 3.0 74 74
r 0.4848 2 3 cbr 1000 ------- 0 2.0 3.0 56 56
+ 0.485714 2 3 cbr 1000 ------- 0 2.0 3.0 75 75
- 0.485714 2 3 cbr 1000 ------- 0 2.0 3.0 75 75
r 0.485943 2 3 cbr 1000 ------- 0 2.0 3.0 57 57
+ 0.486857 2 3 cbr 1000 ------- 0 2.0 3.0 76 76
- 0.486857 2 3 cbr 1000 ------- 0 2.0 3.0 76 76
r 0.487086 2 3 cbr 1000 ------- 0 2.0 3.0 58 58
+ 0.488 2 3 cbr 1000 ------- 0 2.0 3.0 77 77
- 0.488 2 3 cbr 1000 ------- 0 2.0 3.0 77 77
r 0.488229 2 3 cbr 1000 ------- 0 2.0 3.0 59 59
+ 0.489143 2 3 cbr 1000 ------- 0 2.0 3.0 78 78
- 0.489143 2 3 cbr 1000 ------- 0 2.0 3.0 78 78
r 0.489371 2 3 cbr 1000 ------- 0 2.0 3.0 60 60
+ 0.490286 2 3 cbr 1000 ------- 0 2.0 3.0 79 79
- 0.490286 2 3 cbr 1000 ------- 0 2.0 3.0 79 79
r 0.490514 2 3 cbr 1000 ------- 0 2.0 3.0 61 61
+ 0.491429 2 3 cbr 1000 ------- 0 2.0 3.0 80 80
- 0.491429 2 3 cbr 1000 ------- 0 2.0 3.0 80 80
r 0.491657 2 3 cbr 1000 ------- 0 2.0 3.0 62 62
+ 0.492571 2 3 cbr 1000 ------- 0 2.0 3.0 81 81
- 0.492571 2 3 cbr 1000 ------- 0 2.0 3.0 81 81
r 0.4928 2 3 cbr 1000 ------- 0 2.0 3.0 63 63
+ 0.493714 2 3 cbr 1000 ------- 0 2.0 3.0 82 82
- 0.493714 2 3 cbr 1000 ------- 0 2.0 3.0 82 82
r 0.493943 2 3 cbr 1000 ------- 0 2.0 3.0 64 64
+ 0.494857 2 3 cbr 1000 ------- 0 2.0 3.0 83 83
- 0.494857 2 3 cbr 1000 ------- 0 2.0 3.0 83 83
r 0.495086 2 3 cbr 1000 ------- 0 2.0 3.0 65 65
+ 0.496 2 3 cbr 1000 ------- 0 2.0 3.0 84 84
- 0.496 2 3 cbr 1000 ------- 0 2.0 3.0 84 84
r 0.496229 2 3 cbr 1000 ------- 0 2.0 3.0 66 66
+ 0.497143 2 3 cbr 1000 ------- 0 2.0 3.0 85 85
- 0.497143 2 3 cbr 1000 ------- 0 2.0 3.0 85 85
r 0.497371 2 3 cbr 1000 ------- 0 2.0 3.0 67 67
+ 0.498286 2 3 cbr 1000 ------- 0 2.0 3.0 86 86
- 0.498286 2 3 cbr 1000 ------- 0 2.0 3.0 86 86
r 0.498514 2 3 cbr 1000 ------- 0 2.0 3.0 68 68
+ 0.499429 2 3 cbr 1000 ------- 0 2.0 3.0 87 87
- 0.499429 2 3 cbr 1000 ------- 0 2.0 3.0 87 87
r 0.499657 2 3 cbr 1000 ------- 0 2.0 3.0 69 69
+ 0.5 0 2 tcp 40 ------- 1 0.0 4.0 0 88
- 0.5 0 2 tcp 40 ------- 1 0.0 4.0 0 88
+ 0.500571 2 3 cbr 1000 ------- 0 2.0 3.0 88 89
- 0.500571 2 3 cbr 1000 ------- 0 2.0 3.0 88 89
r 0.5008 2 3 cbr 1000 ------- 0 2.0 3.0 70 70
+ 0.501714 2 3 cbr 1000 ------- 0 2.0 3.0 89 90
- 0.501714 2 3 cbr 1000 ------- 0 2.0 3.0 89 90
r 0.501943 2 3 cbr 1000 ------- 0 2.0 3.0 71 71
+ 0.502857 2 3 cbr 1000 ------- 0 2.0 3.0 90 91
- 0.502857 2 3 cbr 1000 ------- 0 2.0 3.0 90 91
r 0.503086 2 3 cbr 1000 ------- 0 2.0 3.0 72 72
+ 0.504 2 3 cbr 1000 ------- 0 2.0 3.0 91 92
- 0.504 2 3 cbr 1000 ------- 0 2.0 3.0 91 92
r 0.504229 2 3 cbr 1000 ------- 0 2.0 3.0 73 73
+ 0.505143 2 3 cbr 1000 ------- 0 2.0 3.0 92 93
- 0.505143 2 3 cbr 1000 ------- 0 2.0 3.0 92 93
r 0.505371 2 3 cbr 1000 ------- 0 2.0 3.0 74 74
+ 0.506286 2 3 cbr 1000 ------- 0 2.0 3.0 93 94
- 0.506286 2 3 cbr 1000 ------- 0 2.0 3.0 93 94
r 0.506514 2 3 cbr 1000 ------- 0 2.0 3.0 75 75
+ 0.507429 2 3 cbr 1000 ------- 0 2.0 3.0 94 95
- 0.507429 2 3 cbr 1000 ------- 0 2.0 3.0 94 95
r 0.507657 2 3 cbr 1000 ------- 0 2.0 3.0 76 76
+ 0.508571 2 3 cbr 1000 ------- 0 2.0 3.0 95 96
- 0.508571 2 3 cbr 1000 ------- 0 2.0 3.0 95 96
r 0.5088 2 3 cbr 1000 ------- 0 2.0 3.0 77 77
+ 0.509714 2 3 cbr 1000 ------- 0 2.0 3.0 96 97
- 0.509714 2 3 cbr 1000 ------- 0 2.0 3.0 96 97
r 0.509943 2 3 cbr 1000 ------- 0 2.0 3.0 78 78
r 0.510032 0 2 tcp 40 ------- 1 0.0 4.0 0 88
+ 0.510032 2 3 tcp 40 ------- 1 0.0 4.0 0 88
- 0.510514 2 3 tcp 40 ------- 1 0.0 4.0 0 88
+ 0.510857 2 3 cbr 1000 ------- 0 2.0 3.0 97 98
- 0.510857 2 3 cbr 1000 ------- 0 2.0 3.0 97 98
r 0.511086 2 3 cbr 1000 ------- 0 2.0 3.0 79 79
+ 0.512 2 3 cbr 1000 ------- 0 2.0 3.0 98 99
- 0.512 2 3 cbr 1000 ------- 0 2.0 3.0 98 99
r 0.512229 2 3 cbr 1000 ------- 0 2.0 3.0 80 80
+ 0.513143 2 3 cbr 1000 ------- 0 2.0 3.0 99 100
- 0.513143 2 3 cbr 1000 ------- 0 2.0 3.0 99 100
r 0.513371 2 3 cbr 1000 ------- 0 2.0 3.0 81 81
+ 0.514286 2 3 cbr 1000 ------- 0 2.0 3.0 100 101
- 0.514286 2 3 cbr 1000 ------- 0 2.0 3.0 100 101
r 0.514514 2 3 cbr 1000 ------- 0 2.0 3.0 82 82
+ 0.515429 2 3 cbr 1000 ------- 0 2.0 3.0 101 102
- 0.515429 2 3 cbr 1000 ------- 0 2.0 3.0 101 102
r 0.515657 2 3 cbr 1000 ------- 0 2.0 3.0 83 83
+ 0.516571 2 3 cbr 1000 ------- 0 2.0 3.0 102 103
- 0.516571 2 3 cbr 1000 ------- 0 2.0 3.0 102 103
r 0.5168 2 3 cbr 1000 ------- 0 2.0 3.0 84 84
+ 0.517714 2 3 cbr 1000 ------- 0 2.0 3.0 103 104
- 0.517714 2 3 cbr 1000 ------- 0 2.0 3.0 103 104
r 0.517943 2 3 cbr 1000 ------- 0 2.0 3.0 85 85
+ 0.518857 2 3 cbr 1000 ------- 0 2.0 3.0 104 105
- 0.518857 2 3 cbr 1000 ------- 0 2.0 3.0 104 105
r 0.519086 2 3 cbr 1000 ------- 0 2.0 3.0 86 86
+ 0.52 2 3 cbr 1000 ------- 0 2.0 3.0 105 106
- 0.52 2 3 cbr 1000 ------- 0 2.0 3.0 105 106
r 0.520229 2 3 cbr 1000 ------- 0 2.0 3.0 87 87
+ 0.521143 2 3 cbr 1000 ------- 0 2.0 3.0 106 107
- 0.521143 2 3 cbr 1000 ------- 0 2.0 3.0 106 107
r 0.521371 2 3 cbr 1000 ------- 0 2.0 3.0 88 89
+ 0.522286 2 3 cbr 1000 ------- 0 2.0 3.0 107 108
- 0.522286 2 3 cbr 1000 ------- 0 2.0 3.0 107 108
r 0.522514 2 3 cbr 1000 ------- 0 2.0 3.0 89 90
+ 0.523429 2 3 cbr 1000 ------- 0 2.0 3.0 108 109
- 0.523429 2 3 cbr 1000 ------- 0 2.0 3.0 108 109
r 0.523657 2 3 cbr 1000 ------- 0 2.0 3.0 90 91
+ 0.524571 2 3 cbr 1000 ------- 0 2.0 3.0 109 110
- 0.524571 2 3 cbr 1000 ------- 0 2.0 3.0 109 110
r 0.5248 2 3 cbr 1000 ------- 0 2.0 3.0 91 92
+ 0.525714 2 3 cbr 1000 ------- 0 2.0 3.0 110 111
- 0.525714 2 3 cbr 1000 ------- 0 2.0 3.0 110 111
r 0.525943 2 3 cbr 1000 ------- 0 2.0 3.0 92 93
+ 0.526857 2 3 cbr 1000 ------- 0 2.0 3.0 111 112
- 0.526857 2 3 cbr 1000 ------- 0 2.0 3.0 111 112
r 0.527086 2 3 cbr 1000 ------- 0 2.0 3.0 93 94
+ 0.528 2 3 cbr 1000 ------- 0 2.0 3.0 112 113
- 0.528 2 3 cbr 1000 ------- 0 2.0 3.0 112 113
r 0.528229 2 3 cbr 1000 ------- 0 2.0 3.0 94 95
+ 0.529143 2 3 cbr 1000 ------- 0 2.0 3.0 113 114
- 0.529143 2 3 cbr 1000 ------- 0 2.0 3.0 113 114
r 0.529371 2 3 cbr 1000 ------- 0 2.0 3.0 95 96
+ 0.530286 2 3 cbr 1000 ------- 0 2.0 3.0 114 115
- 0.530286 2 3 cbr 1000 ------- 0 2.0 3.0 114 115
r 0.530514 2 3 cbr 1000 ------- 0 2.0 3.0 96 97
r 0.530546 2 3 tcp 40 ------- 1 0.0 4.0 0 88
+ 0.530546 3 4 tcp 40 ------- 1 0.0 4.0 0 88
- 0.530546 3 4 tcp 40 ------- 1 0.0 4.0 0 88
+ 0.531429 2 3 cbr 1000 ------- 0 2.0 3.0 115 116
- 0.531429 2 3 cbr 1000 ------- 0 2.0 3.0 115 116
r 0.531657 2 3 cbr 1000 ------- 0 2.0 3.0 97 98
+ 0.532571 2 3 cbr 1000 ------- 0 2.0 3.0 116 117
- 0.532571 2 3 cbr 1000 ------- 0 2.0 3.0 116 117
r 0.5328 2 3 cbr 1000 ------- 0 2.0 3.0 98 99
+ 0.533714 2 3 cbr 1000 ------- 0 2.0 3.0 117 118
- 0.533714 2 3 cbr 1000 ------- 0 2.0 3.0 117 118
r 0.533943 2 3 cbr 1000 ------- 0 2.0 3.0 99 100
+ 0.534857 2 3 cbr 1000 ------- 0 2.0 3.0 118 119
- 0.534857 2 3 cbr 1000 ------- 0 2.0 3.0 118 119
r 0.535086 2 3 cbr 1000 ------- 0 2.0 3.0 100 101
+ 0.536 2 3 cbr 1000 ------- 0 2.0 3.0 119 120
- 0.536 2 3 cbr 1000 ------- 0 2.0 3.0 119 120
r 0.536229 2 3 cbr 1000 ------- 0 2.0 3.0 101 102
+ 0.537143 2 3 cbr 1000 ------- 0 2.0 3.0 120 121
- 0.537143 2 3 cbr 1000 ------- 0 2.0 3.0 120 121
r 0.537371 2 3 cbr 1000 ------- 0 2.0 3.0 102 103
+ 0.538286 2 3 cbr 1000 ------- 0 2.0 3.0 121 122
- 0.538286 2 3 cbr 1000 ------- 0 2.0 3.0 121 122
r 0.538514 2 3 cbr 1000 ------- 0 2.0 3.0 103 104
+ 0.539429 2 3 cbr 1000 ------- 0 2.0 3.0 122 123
- 0.539429 2 3 cbr 1000 ------- 0 2.0 3.0 122 123
r 0.539657 2 3 cbr 1000 ------- 0 2.0 3.0 104 105
+ 0.540571 2 3 cbr 1000 ------- 0 2.0 3.0 123 124
- 0.540571 2 3 cbr 1000 ------- 0 2.0 3.0 123 124
r 0.540578 3 4 tcp 40 ------- 1 0.0 4.0 0 88
+ 0.540578 4 3 ack 40 ------- 1 4.0 0.0 0 125
- 0.540578 4 3 ack 40 ------- 1 4.0 0.0 0 125
r 0.5408 2 3 cbr 1000 ------- 0 2.0 3.0 105 106
+ 0.541714 2 3 cbr 1000 ------- 0 2.0 3.0 124 126
- 0.541714 2 3 cbr 1000 ------- 0 2.0 3.0 124 126
r 0.541943 2 3 cbr 1000 ------- 0 2.0 3.0 106 107
+ 0.542857 2 3 cbr 1000 ------- 0 2.0 3.0 125 127
- 0.542857 2 3 cbr 1000 ------- 0 2.0 3.0 125 127
r 0.543086 2 3 cbr 1000 ------- 0 2.0 3.0 107 108
+ 0.544 2 3 cbr 1000 ------- 0 2.0 3.0 126 128
- 0.544 2 3 cbr 1000 ------- 0 2.0 3.0 126 128
r 0.544229 2 3 cbr 1000 ------- 0 2.0 3.0 108 109
+ 0.545143 2 3 cbr 1000 ------- 0 2.0 3.0 127 129
- 0.545143 2 3 cbr 1000 ------- 0 2.0 3.0 127 129
r 0.545371 2 3 cbr 1000 ------- 0 2.0 3.0 109 110
+ 0.546286 2 3 cbr 1000 ------- 0 2.0 3.0 128 130
- 0.546286 2 3 cbr 1000 ------- 0 2.0 3.0 128 130
r 0.546514 2 3 cbr 1000 ------- 0 2.0 3.0 110 111
+ 0.547429 2 3 cbr 1000 ------- 0 2.0 3.0 129 131
- 0.547429 2 3 cbr 1000 ------- 0 2.0 3.0 129 131
r 0.547657 2 3 cbr 1000 ------- 0 2.0 3.0 111 112
+ 0.548571 2 3 cbr 1000 ------- 0 2.0 3.0 130 132
- 0.548571 2 3 cbr 1000 ------- 0 2.0 3.0 130 132
r 0.5488 2 3 cbr 1000 ------- 0 2.0 3.0 112 113
+ 0.549714 2 3 cbr 1000 ------- 0 2.0 3.0 131 133
- 0.549714 2 3 cbr 1000 ------- 0 2.0 3.0 131 133
r 0.549943 2 3 cbr 1000 ------- 0 2.0 3.0 113 114
r 0.55061 4 3 ack 40 ------- 1 4.0 0.0 0 125
+ 0.55061 3 2 ack 40 ------- 1 4.0 0.0 0 125
- 0.55061 3 2 ack 40 ------- 1 4.0 0.0 0 125
+ 0.550857 2 3 cbr 1000 ------- 0 2.0 3.0 132 134
- 0.550857 2 3 cbr 1000 ------- 0 2.0 3.0 132 134
r 0.551086 2 3 cbr 1000 ------- 0 2.0 3.0 114 115
+ 0.552 2 3 cbr 1000 ------- 0 2.0 3.0 133 135
- 0.552 2 3 cbr 1000 ------- 0 2.0 3.0 133 135
r 0.552229 2 3 cbr 1000 ------- 0 2.0 3.0 115 116
+ 0.553143 2 3 cbr 1000 ------- 0 2.0 3.0 134 136
- 0.553143 2 3 cbr 1000 ------- 0 2.0 3.0 134 136
r 0.553371 2 3 cbr 1000 ------- 0 2.0 3.0 116 117
+ 0.554286 2 3 cbr 1000 ------- 0 2.0 3.0 135 137
- 0.554286 2 3 cbr 1000 ------- 0 2.0 3.0 135 137
r 0.554514 2 3 cbr 1000 ------- 0 2.0 3.0 117 118
+ 0.555429 2 3 cbr 1000 ------- 0 2.0 3.0 136 138
- 0.555429 2 3 cbr 1000 ------- 0 2.0 3.0 136 138
r 0.555657 2 3 cbr 1000 ------- 0 2.0 3.0 118 119
+ 0.556571 2 3 cbr 1000 ------- 0 2.0 3.0 137 139
- 0.556571 2 3 cbr 1000 ------- 0 2.0 3.0 137 139
r 0.5568 2 3 cbr 1000 ------- 0 2.0 3.0 119 120
+ 0.557714 2 3 cbr 1000 ------- 0 2.0 3.0 138 140
- 0.557714 2 3 cbr 1000 ------- 0 2.0 3.0 138 140
r 0.557943 2 3 cbr 1000 ------- 0 2.0 3.0 120 121
+ 0.558857 2 3 cbr 1000 ------- 0 2.0 3.0 139 141
- 0.558857 2 3 cbr 1000 ------- 0 2.0 3.0 139 141
r 0.559086 2 3 cbr 1000 ------- 0 2.0 3.0 121 122
+ 0.56 2 3 cbr 1000 ------- 0 2.0 3.0 140 142
- 0.56 2 3 cbr 1000 ------- 0 2.0 3.0 140 142
r 0.560229 2 3 cbr 1000 ------- 0 2.0 3.0 122 123
+ 0.561143 2 3 cbr 1000 ------- 0 2.0 3.0 141 143
- 0.561143 2 3 cbr 1000 ------- 0 2.0 3.0 141 143
r 0.561371 2 3 cbr 1000 ------- 0 2.0 3.0 123 124
+ 0.562286 2 3 cbr 1000 ------- 0 2.0 3.0 142 144
- 0.562286 2 3 cbr 1000 ------- 0 2.0 3.0 142 144
r 0.562514 2 3 cbr 1000 ------- 0 2.0 3.0 124 126
+ 0.563429 2 3 cbr 1000 ------- 0 2.0 3.0 143 145
- 0.563429 2 3 cbr 1000 ------- 0 2.0 3.0 143 145
r 0.563657 2 3 cbr 1000 ------- 0 2.0 3.0 125 127
+ 0.564571 2 3 cbr 1000 ------- 0 2.0 3.0 144 146
- 0.564571 2 3 cbr 1000 ------- 0 2.0 3.0 144 146
r 0.5648 2 3 cbr 1000 ------- 0 2.0 3.0 126 128
+ 0.565714 2 3 cbr 1000 ------- 0 2.0 3.0 145 147
- 0.565714 2 3 cbr 1000 ------- 0 2.0 3.0 145 147
r 0.565943 2 3 cbr 1000 ------- 0 2.0 3.0 127 129
+ 0.566857 2 3 cbr 1000 ------- 0 2.0 3.0 146 148
- 0.566857 2 3 cbr 1000 ------- 0 2.0 3.0 146 148
r 0.567086 2 3 cbr 1000 ------- 0 2.0 3.0 128 130
+ 0.568 2 3 cbr 1000 ------- 0 2.0 3.0 147 149
- 0.568 2 3 cbr 1000 ------- 0 2.0 3.0 147 149
r 0.568229 2 3 cbr 1000 ------- 0 2.0 3.0 129 131
+ 0.569143 2 3 cbr 1000 ------- 0 2.0 3.0 148 150
- 0.569143 2 3 cbr 1000 ------- 0 2.0 3.0 148 150
r 0.569371 2 3 cbr 1000 ------- 0 2.0 3.0 130 132
+ 0.570286 2 3 cbr 1000 ------- 0 2.0 3.0 149 151
- 0.570286 2 3 cbr 1000 ------- 0 2.0 3.0 149 151
r 0.570514 2 3 cbr 1000 ------- 0 2.0 3.0 131 133
r 0.570642 3 2 ack 40 ------- 1 4.0 0.0 0 125
+ 0.570642 2 0 ack 40 ------- 1 4.0 0.0 0 125
- 0.570642 2 0 ack 40 ------- 1 4.0 0.0 0 125
+ 0.571429 2 3 cbr 1000 ------- 0 2.0 3.0 150 152
- 0.571429 2 3 cbr 1000 ------- 0 2.0 3.0 150 152
r 0.571657 2 3 cbr 1000 ------- 0 2.0 3.0 132 134
+ 0.572571 2 3 cbr 1000 ------- 0 2.0 3.0 151 153
- 0.572571 2 3 cbr 1000 ------- 0 2.0 3.0 151 153
r 0.5728 2 3 cbr 1000 ------- 0 2.0 3.0 133 135
+ 0.573714 2 3 cbr 1000 ------- 0 2.0 3.0 152 154
- 0.573714 2 3 cbr 1000 ------- 0 2.0 3.0 152 154
r 0.573943 2 3 cbr 1000 ------- 0 2.0 3.0 134 136
+ 0.574857 2 3 cbr 1000 ------- 0 2.0 3.0 153 155
- 0.574857 2 3 cbr 1000 ------- 0 2.0 3.0 153 155
r 0.575086 2 3 cbr 1000 ------- 0 2.0 3.0 135 137
+ 0.576 2 3 cbr 1000 ------- 0 2.0 3.0 154 156
- 0.576 2 3 cbr 1000 ------- 0 2.0 3.0 154 156
r 0.576229 2 3 cbr 1000 ------- 0 2.0 3.0 136 138
+ 0.577143 2 3 cbr 1000 ------- 0 2.0 3.0 155 157
- 0.577143 2 3 cbr 1000 ------- 0 2.0 3.0 155 157
r 0.577371 2 3 cbr 1000 ------- 0 2.0 3.0 137 139
+ 0.578286 2 3 cbr 1000 ------- 0 2.0 3.0 156 158
- 0.578286 2 3 cbr 1000 ------- 0 2.0 3.0 156 158
r 0.578514 2 3 cbr 1000 ------- 0 2.0 3.0 138 140
+ 0.579429 2 3 cbr 1000 ------- 0 2.0 3.0 157 159
- 0.579429 2 3 cbr 1000 ------- 0 2.0 3.0 157 159
r 0.579657 2 3 cbr 1000 ------- 0 2.0 3.0 139 141
+ 0.580571 2 3 cbr 1000 ------- 0 2.0 3.0 158 160
- 0.580571 2 3 cbr 1000 ------- 0 2.0 3.0 158 160
r 0.580674 2 0 ack 40 ------- 1 4.0 0.0 0 125
+ 0.580674 0 2 tcp 1040 ------- 1 0.0 4.0 1 161
- 0.580674 0 2 tcp 1040 ------- 1 0.0 4.0 1 161
+ 0.580674 0 2 tcp 1040 ------- 1 0.0 4.0 2 162
r 0.5808 2 3 cbr 1000 ------- 0 2.0 3.0 140 142
- 0.581506 0 2 tcp 1040 ------- 1 0.0 4.0 2 162
+ 0.581714 2 3 cbr 1000 ------- 0 2.0 3.0 159 163
- 0.581714 2 3 cbr 1000 ------- 0 2.0 3.0 159 163
r 0.581943 2 3 cbr 1000 ------- 0 2.0 3.0 141 143
+ 0.582857 2 3 cbr 1000 ------- 0 2.0 3.0 160 164
- 0.582857 2 3 cbr 1000 ------- 0 2.0 3.0 160 164
r 0.583086 2 3 cbr 1000 ------- 0 2.0 3.0 142 144
+ 0.584 2 3 cbr 1000 ------- 0 2.0 3.0 161 165
- 0.584 2 3 cbr 1000 ------- 0 2.0 3.0 161 165
r 0.584229 2 3 cbr 1000 ------- 0 2.0 3.0 143 145
+ 0.585143 2 3 cbr 1000 ------- 0 2.0 3.0 162 166
- 0.585143 2 3 cbr 1000 ------- 0 2.0 3.0 162 166
r 0.585371 2 3 cbr 1000 ------- 0 2.0 3.0 144 146
+ 0.586286 2 3 cbr 1000 ------- 0 2.0 3.0 163 167
- 0.586286 2 3 cbr 1000 ------- 0 2.0 3.0 163 167
r 0.586514 2 3 cbr 1000 ------- 0 2.0 3.0 145 147
+ 0.587429 2 3 cbr 1000 ------- 0 2.0 3.0 164 168
- 0.587429 2 3 cbr 1000 ------- 0 2.0 3.0 164 168
r 0.587657 2 3 cbr 1000 ------- 0 2.0 3.0 146 148
+ 0.588571 2 3 cbr 1000 ------- 0 2.0 3.0 165 169
- 0.588571 2 3 cbr 1000 ------- 0 2.0 3.0 165 169
r 0.5888 2 3 cbr 1000 ------- 0 2.0 3.0 147 149
+ 0.589714 2 3 cbr 1000 ------- 0 2.0 3.0 166 170
- 0.589714 2 3 cbr 1000 ------- 0 2.0 3.0 166 170
r 0.589943 2 3 cbr 1000 ------- 0 2.0 3.0 148 150
+ 0.590857 2 3 cbr 1000 ------- 0 2.0 3.0 167 171
- 0.590857 2 3 cbr 1000 ------- 0 2.0 3.0 167 171
r 0.591086 2 3 cbr 1000 ------- 0 2.0 3.0 149 151
r 0.591506 0 2 tcp 1040 ------- 1 0.0 4.0 1 161
+ 0.591506 2 3 tcp 1040 ------- 1 0.0 4.0 1 161
- 0.591657 2 3 tcp 1040 ------- 1 0.0 4.0 1 161
+ 0.592 2 3 cbr 1000 ------- 0 2.0 3.0 168 172
r 0.592229 2 3 cbr 1000 ------- 0 2.0 3.0 150 152
r 0.592338 0 2 tcp 1040 ------- 1 0.0 4.0 2 162
+ 0.592338 2 3 tcp 1040 ------- 1 0.0 4.0 2 162
- 0.592489 2 3 cbr 1000 ------- 0 2.0 3.0 168 172
+ 0.593143 2 3 cbr 1000 ------- 0 2.0 3.0 169 173
- 0.593289 2 3 tcp 1040 ------- 1 0.0 4.0 2 162
r 0.593371 2 3 cbr 1000 ------- 0 2.0 3.0 151 153
- 0.594121 2 3 cbr 1000 ------- 0 2.0 3.0 169 173
+ 0.594286 2 3 cbr 1000 ------- 0 2.0 3.0 170 174
r 0.594514 2 3 cbr 1000 ------- 0 2.0 3.0 152 154
- 0.594921 2 3 cbr 1000 ------- 0 2.0 3.0 170 174
+ 0.595429 2 3 cbr 1000 ------- 0 2.0 3.0 171 175
r 0.595657 2 3 cbr 1000 ------- 0 2.0 3.0 153 155
- 0.595721 2 3 cbr 1000 ------- 0 2.0 3.0 171 175
+ 0.596571 2 3 cbr 1000 ------- 0 2.0 3.0 172 176
- 0.596571 2 3 cbr 1000 ------- 0 2.0 3.0 172 176
r 0.5968 2 3 cbr 1000 ------- 0 2.0 3.0 154 156
+ 0.597714 2 3 cbr 1000 ------- 0 2.0 3.0 173 177
- 0.597714 2 3 cbr 1000 ------- 0 2.0 3.0 173 177
r 0.597943 2 3 cbr 1000 ------- 0 2.0 3.0 155 157
+ 0.598857 2 3 cbr 1000 ------- 0 2.0 3.0 174 178
- 0.598857 2 3 cbr 1000 ------- 0 2.0 3.0 174 178
r 0.599086 2 3 cbr 1000 ------- 0 2.0 3.0 156 158
+ 0.6 2 3 cbr 1000 ------- 0 2.0 3.0 175 179
- 0.6 2 3 cbr 1000 ------- 0 2.0 3.0 175 179
r 0.600229 2 3 cbr 1000 ------- 0 2.0 3.0 157 159
+ 0.601143 2 3 cbr 1000 ------- 0 2.0 3.0 176 180
- 0.601143 2 3 cbr 1000 ------- 0 2.0 3.0 176 180
r 0.601371 2 3 cbr 1000 ------- 0 2.0 3.0 158 160
+ 0.602286 2 3 cbr 1000 ------- 0 2.0 3.0 177 181
- 0.602286 2 3 cbr 1000 ------- 0 2.0 3.0 177 181
r 0.602514 2 3 cbr 1000 ------- 0 2.0 3.0 159 163
+ 0.603429 2 3 cbr 1000 ------- 0 2.0 3.0 178 182
- 0.603429 2 3 cbr 1000 ------- 0 2.0 3.0 178 182
r 0.603657 2 3 cbr 1000 ------- 0 2.0 3.0 160 164
+ 0.604571 2 3 cbr 1000 ------- 0 2.0 3.0 179 183
- 0.604571 2 3 cbr 1000 ------- 0 2.0 3.0 179 183
r 0.6048 2 3 cbr 1000 ------- 0 2.0 3.0 161 165
+ 0.605714 2 3 cbr 1000 ------- 0 2.0 3.0 180 184
- 0.605714 2 3 cbr 1000 ------- 0 2.0 3.0 180 184
r 0.605943 2 3 cbr 1000 ------- 0 2.0 3.0 162 166
+ 0.606857 2 3 cbr 1000 ------- 0 2.0 3.0 181 185
- 0.606857 2 3 cbr 1000 ------- 0 2.0 3.0 181 185
r 0.607086 2 3 cbr 1000 ------- 0 2.0 3.0 163 167
+ 0.608 2 3 cbr 1000 ------- 0 2.0 3.0 182 186
- 0.608 2 3 cbr 1000 ------- 0 2.0 3.0 182 186
r 0.608229 2 3 cbr 1000 ------- 0 2.0 3.0 164 168
+ 0.609143 2 3 cbr 1000 ------- 0 2.0 3.0 183 187
- 0.609143 2 3 cbr 1000 ------- 0 2.0 3.0 183 187
r 0.609371 2 3 cbr 1000 ------- 0 2.0 3.0 165 169
+ 0.610286 2 3 cbr 1000 ------- 0 2.0 3.0 184 188
- 0.610286 2 3 cbr 1000 ------- 0 2.0 3.0 184 188
r 0.610514 2 3 cbr 1000 ------- 0 2.0 3.0 166 170
+ 0.611429 2 3 cbr 1000 ------- 0 2.0 3.0 185 189
- 0.611429 2 3 cbr 1000 ------- 0 2.0 3.0 185 189
r 0.611657 2 3 cbr 1000 ------- 0 2.0 3.0 167 171
r 0.612489 2 3 tcp 1040 ------- 1 0.0 4.0 1 161
+ 0.612489 3 4 tcp 1040 ------- 1 0.0 4.0 1 161
- 0.612489 3 4 tcp 1040 ------- 1 0.0 4.0 1 161
+ 0.612571 2 3 cbr 1000 ------- 0 2.0 3.0 186 190
- 0.612571 2 3 cbr 1000 ------- 0 2.0 3.0 186 190
r 0.613289 2 3 cbr 1000 ------- 0 2.0 3.0 168 172
+ 0.613714 2 3 cbr 1000 ------- 0 2.0 3.0 187 191
- 0.613714 2 3 cbr 1000 ------- 0 2.0 3.0 187 191
r 0.614121 2 3 tcp 1040 ------- 1 0.0 4.0 2 162
+ 0.614121 3 4 tcp 1040 ------- 1 0.0 4.0 2 162
- 0.614121 3 4 tcp 1040 ------- 1 0.0 4.0 2 162
+ 0.614857 2 3 cbr 1000 ------- 0 2.0 3.0 188 192
- 0.614857 2 3 cbr 1000 ------- 0 2.0 3.0 188 192
r 0.614921 2 3 cbr 1000 ------- 0 2.0 3.0 169 173
r 0.615721 2 3 cbr 1000 ------- 0 2.0 3.0 170 174
+ 0.616 2 3 cbr 1000 ------- 0 2.0 3.0 189 193
- 0.616 2 3 cbr 1000 ------- 0 2.0 3.0 189 193
r 0.616521 2 3 cbr 1000 ------- 0 2.0 3.0 171 175
+ 0.617143 2 3 cbr 1000 ------- 0 2.0 3.0 190 194
- 0.617143 2 3 cbr 1000 ------- 0 2.0 3.0 190 194
r 0.617371 2 3 cbr 1000 ------- 0 2.0 3.0 172 176
+ 0.618286 2 3 cbr 1000 ------- 0 2.0 3.0 191 195
- 0.618286 2 3 cbr 1000 ------- 0 2.0 3.0 191 195
r 0.618514 2 3 cbr 1000 ------- 0 2.0 3.0 173 177
+ 0.619429 2 3 cbr 1000 ------- 0 2.0 3.0 192 196
- 0.619429 2 3 cbr 1000 ------- 0 2.0 3.0 192 196
r 0.619657 2 3 cbr 1000 ------- 0 2.0 3.0 174 178
+ 0.620571 2 3 cbr 1000 ------- 0 2.0 3.0 193 197
- 0.620571 2 3 cbr 1000 ------- 0 2.0 3.0 193 197
r 0.6208 2 3 cbr 1000 ------- 0 2.0 3.0 175 179
+ 0.621714 2 3 cbr 1000 ------- 0 2.0 3.0 194 198
- 0.621714 2 3 cbr 1000 ------- 0 2.0 3.0 194 198
r 0.621943 2 3 cbr 1000 ------- 0 2.0 3.0 176 180
+ 0.622857 2 3 cbr 1000 ------- 0 2.0 3.0 195 199
- 0.622857 2 3 cbr 1000 ------- 0 2.0 3.0 195 199
r 0.623086 2 3 cbr 1000 ------- 0 2.0 3.0 177 181
r 0.623321 3 4 tcp 1040 ------- 1 0.0 4.0 1 161
+ 0.623321 4 3 ack 40 ------- 1 4.0 0.0 1 200
- 0.623321 4 3 ack 40 ------- 1 4.0 0.0 1 200
+ 0.624 2 3 cbr 1000 ------- 0 2.0 3.0 196 201
- 0.624 2 3 cbr 1000 ------- 0 2.0 3.0 196 201
r 0.624229 2 3 cbr 1000 ------- 0 2.0 3.0 178 182
r 0.624953 3 4 tcp 1040 ------- 1 0.0 4.0 2 162
+ 0.624953 4 3 ack 40 ------- 1 4.0 0.0 2 202
- 0.624953 4 3 ack 40 ------- 1 4.0 0.0 2 202
+ 0.625143 2 3 cbr 1000 ------- 0 2.0 3.0 197 203
- 0.625143 2 3 cbr 1000 ------- 0 2.0 3.0 197 203
r 0.625371 2 3 cbr 1000 ------- 0 2.0 3.0 179 183
+ 0.626286 2 3 cbr 1000 ------- 0 2.0 3.0 198 204
- 0.626286 2 3 cbr 1000 ------- 0 2.0 3.0 198 204
r 0.626514 2 3 cbr 1000 ------- 0 2.0 3.0 180 184
+ 0.627429 2 3 cbr 1000 ------- 0 2.0 3.0 199 205