+ 0.4 2 3 cbr 1000 ------- 0 2.0 3.0 0 0
- 0.4 2 3 cbr 1000 ------- 0 2.0 3.0 0 0
+ 0.401333 2 3 cbr 1000 ------- 0 2.0 3.0 1 1
- 0.401333 2 3 cbr 1000 ------- 0 2.0 3.0 1 1
+ 0.402667 2 3 cbr 1000 ------- 0 2.0 3.0 2 2
- 0.402667 2 3 cbr 1000 ------- 0 2.0 3.0 2 2
+ 0.404 2 3 cbr 1000 ------- 0 2.0 3.0 3 3
- 0.404 2 3 cbr 1000 ------- 0 2.0 3.0 3 3
+ 0.405333 2 3 cbr 1000 ------- 0 2.0 3.0 4 4
- 0.405333 2 3 cbr 1000 ------- 0 2.0 3.0 4 4
+ 0.406667 2 3 cbr 1000 ------- 0 2.0 3.0 5 5
- 0.406667 2 3 cbr 1000 ------- 0 2.0 3.0 5 5
+ 0.408 2 3 cbr 1000 ------- 0 2.0 3.0 6 6
- 0.408 2 3 cbr 1000 ------- 0 2.0 3.0 6 6
+ 0.409333 2 3 cbr 1000 ------- 0 2.0 3.0 7 7
- 0.409333 2 3 cbr 1000 ------- 0 2.0 3.0 7 7
+ 0.410667 2 3 cbr 1000 ------- 0 2.0 3.0 8 8
- 0.410667 2 3 cbr 1000 ------- 0 2.0 3.0 8 8
+ 0.412 2 3 cbr 1000 ------- 0 2.0 3.0 9 9
- 0.412 2 3 cbr 1000 ------- 0 2.0 3.0 9 9
+ 0.413333 2 3 cbr 1000 ------- 0 2.0 3.0 10 10
- 0.413333 2 3 cbr 1000 ------- 0 2.0 3.0 10 10
+ 0.414667 2 3 cbr 1000 ------- 0 2.0 3.0 11 11
- 0.414667 2 3 cbr 1000 ------- 0 2.0 3.0 11 11
+ 0.416 2 3 cbr 1000 ------- 0 2.0 3.0 12 12
- 0.416 2 3 cbr 1000 ------- 0 2.0 3.0 12 12
+ 0.417333 2 3 cbr 1000 ------- 0 2.0 3.0 13 13
- 0.417333 2 3 cbr 1000 ------- 0 2.0 3.0 13 13
+ 0.418667 2 3 cbr 1000 ------- 0 2.0 3.0 14 14
- 0.418667 2 3 cbr 1000 ------- 0 2.0 3.0 14 14
+ 0.42 2 3 cbr 1000 ------- 0 2.0 3.0 15 15
- 0.42 2 3 cbr 1000 ------- 0 2.0 3.0 15 15
r 0.4208 2 3 cbr 1000 ------- 0 2.0 3.0 0 0
+ 0.421333 2 3 cbr 1000 ------- 0 2.0 3.0 16 16
- 0.421333 2 3 cbr 1000 ------- 0 2.0 3.0 16 16
r 0.422133 2 3 cbr 1000 ------- 0 2.0 3.0 1 1
+ 0.422667 2 3 cbr 1000 ------- 0 2.0 3.0 17 17
- 0.422667 2 3 cbr 1000 ------- 0 2.0 3.0 17 17
r 0.423467 2 3 cbr 1000 ------- 0 2.0 3.0 2 2
+ 0.424 2 3 cbr 1000 ------- 0 2.0 3.0 18 18
- 0.424 2 3 cbr 1000 ------- 0 2.0 3.0 18 18
r 0.4248 2 3 cbr 1000 ------- 0 2.0 3.0 3 3
+ 0.425333 2 3 cbr 1000 ------- 0 2.0 3.0 19 19
- 0.425333 2 3 cbr 1000 ------- 0 2.0 3.0 19 19
r 0.426133 2 3 cbr 1000 ------- 0 2.0 3.0 4 4
+ 0.426667 2 3 cbr 1000 ------- 0 2.0 3.0 20 20
- 0.426667 2 3 cbr 1000 ------- 0 2.0 3.0 20 20
r 0.427467 2 3 cbr 1000 ------- 0 2.0 3.0 5 5
+ 0.428 2 3 cbr 1000 ------- 0 2.0 3.0 21 21
- 0.428 2 3 cbr 1000 ------- 0 2.0 3.0 21 21
r 0.4288 2 3 cbr 1000 ------- 0 2.0 3.0 6 6
+ 0.429333 2 3 cbr 1000 ------- 0 2.0 3.0 22 22
- 0.429333 2 3 cbr 1000 ------- 0 2.0 3.0 22 22
r 0.430133 2 3 cbr 1000 ------- 0 2.0 3.0 7 7
+ 0.430667 2 3 cbr 1000 ------- 0 2.0 3.0 23 23
- 0.430667 2 3 cbr 1000 ------- 0 2.0 3.0 23 23
r 0.431467 2 3 cbr 1000 ------- 0 2.0 3.0 8 8
+ 0.432 2 3 cbr 1000 ------- 0 2.0 3.0 24 24
- 0.432 2 3 cbr 1000 ------- 0 2.0 3.0 24 24
r 0.4328 2 3 cbr 1000 ------- 0 2.0 3.0 9 9
+ 0.433333 2 3 cbr 1000 ------- 0 2.0 3.0 25 25
- 0.433333 2 3 cbr 1000 ------- 0 2.0 3.0 25 25
r 0.434133 2 3 cbr 1000 ------- 0 2.0 3.0 10 10
+ 0.434667 2 3 cbr 1000 ------- 0 2.0 3.0 26 26
- 0.434667 2 3 cbr 1000 ------- 0 2.0 3.0 26 26
r 0.435467 2 3 cbr 1000 ------- 0 2.0 3.0 11 11
+ 0.436 2 3 cbr 1000 ------- 0 2.0 3.0 27 27
- 0.436 2 3 cbr 1000 ------- 0 2.0 3.0 27 27
r 0.4368 2 3 cbr 1000 ------- 0 2.0 3.0 12 12
+ 0.437333 2 3 cbr 1000 ------- 0 2.0 3.0 28 28
- 0.437333 2 3 cbr 1000 ------- 0 2.0 3.0 28 28
r 0.438133 2 3 cbr 1000 ------- 0 2.0 3.0 13 13
+ 0.438667 2 3 cbr 1000 ------- 0 2.0 3.0 29 29
- 0.438667 2 3 cbr 1000 ------- 0 2.0 3.0 29 29
r 0.439467 2 3 cbr 1000 ------- 0 2.0 3.0 14 14
+ 0.44 2 3 cbr 1000 ------- 0 2.0 3.0 30 30
- 0.44 2 3 cbr 1000 ------- 0 2.0 3.0 30 30
r 0.4408 2 3 cbr 1000 ------- 0 2.0 3.0 15 15
+ 0.441333 2 3 cbr 1000 ------- 0 2.0 3.0 31 31
- 0.441333 2 3 cbr 1000 ------- 0 2.0 3.0 31 31
r 0.442133 2 3 cbr 1000 ------- 0 2.0 3.0 16 16
+ 0.442667 2 3 cbr 1000 ------- 0 2.0 3.0 32 32
- 0.442667 2 3 cbr 1000 ------- 0 2.0 3.0 32 32
r 0.443467 2 3 cbr 1000 ------- 0 2.0 3.0 17 17
+ 0.444 2 3 cbr 1000 ------- 0 2.0 3.0 33 33
- 0.444 2 3 cbr 1000 ------- 0 2.0 3.0 33 33
r 0.4448 2 3 cbr 1000 ------- 0 2.0 3.0 18 18
+ 0.445333 2 3 cbr 1000 ------- 0 2.0 3.0 34 34
- 0.445333 2 3 cbr 1000 ------- 0 2.0 3.0 34 34
r 0.446133 2 3 cbr 1000 ------- 0 2.0 3.0 19 19
+ 0.446667 2 3 cbr 1000 ------- 0 2.0 3.0 35 35
- 0.446667 2 3 cbr 1000 ------- 0 2.0 3.0 35 35
r 0.447467 2 3 cbr 1000 ------- 0 2.0 3.0 20 20
+ 0.448 2 3 cbr 1000 ------- 0 2.0 3.0 36 36
- 0.448 2 3 cbr 1000 ------- 0 2.0 3.0 36 36
r 0.4488 2 3 cbr 1000 ------- 0 2.0 3.0 21 21
+ 0.449333 2 3 cbr 1000 ------- 0 2.0 3.0 37 37
- 0.449333 2 3 cbr 1000 ------- 0 2.0 3.0 37 37
r 0.450133 2 3 cbr 1000 ------- 0 2.0 3.0 22 22
+ 0.450667 2 3 cbr 1000 ------- 0 2.0 3.0 38 38
- 0.450667 2 3 cbr 1000 ------- 0 2.0 3.0 38 38
r 0.451467 2 3 cbr 1000 ------- 0 2.0 3.0 23 23
+ 0.452 2 3 cbr 1000 ------- 0 2.0 3.0 39 39
- 0.452 2 3 cbr 1000 ------- 0 2.0 3.0 39 39
r 0.4528 2 3 cbr 1000 ------- 0 2.0 3.0 24 24
+ 0.453333 2 3 cbr 1000 ------- 0 2.0 3.0 40 40
- 0.453333 2 3 cbr 1000 ------- 0 2.0 3.0 40 40
r 0.454133 2 3 cbr 1000 ------- 0 2.0 3.0 25 25
+ 0.454667 2 3 cbr 1000 ------- 0 2.0 3.0 41 41
- 0.454667 2 3 cbr 1000 ------- 0 2.0 3.0 41 41
r 0.455467 2 3 cbr 1000 ------- 0 2.0 3.0 26 26
+ 0.456 2 3 cbr 1000 ------- 0 2.0 3.0 42 42
- 0.456 2 3 cbr 1000 ------- 0 2.0 3.0 42 42
r 0.4568 2 3 cbr 1000 ------- 0 2.0 3.0 27 27
+ 0.457333 2 3 cbr 1000 ------- 0 2.0 3.0 43 43
- 0.457333 2 3 cbr 1000 ------- 0 2.0 3.0 43 43
r 0.458133 2 3 cbr 1000 ------- 0 2.0 3.0 28 28
+ 0.458667 2 3 cbr 1000 ------- 0 2.0 3.0 44 44
- 0.458667 2 3 cbr 1000 ------- 0 2.0 3.0 44 44
r 0.459467 2 3 cbr 1000 ------- 0 2.0 3.0 29 29
+ 0.46 2 3 cbr 1000 ------- 0 2.0 3.0 45 45
- 0.46 2 3 cbr 1000 ------- 0 2.0 3.0 45 45
r 0.4608 2 3 cbr 1000 ------- 0 2.0 3.0 30 30
+ 0.461333 2 3 cbr 1000 ------- 0 2.0 3.0 46 46
- 0.461333 2 3 cbr 1000 ------- 0 2.0 3.0 46 46
r 0.462133 2 3 cbr 1000 ------- 0 2.0 3.0 31 31
+ 0.462667 2 3 cbr 1000 ------- 0 2.0 3.0 47 47
- 0.462667 2 3 cbr 1000 ------- 0 2.0 3.0 47 47
r 0.463467 2 3 cbr 1000 ------- 0 2.0 3.0 32 32
+ 0.464 2 3 cbr 1000 ------- 0 2.0 3.0 48 48
- 0.464 2 3 cbr 1000 ------- 0 2.0 3.0 48 48
r 0.4648 2 3 cbr 1000 ------- 0 2.0 3.0 33 33
+ 0.465333 2 3 cbr 1000 ------- 0 2.0 3.0 49 49
- 0.465333 2 3 cbr 1000 ------- 0 2.0 3.0 49 49
r 0.466133 2 3 cbr 1000 ------- 0 2.0 3.0 34 34
+ 0.466667 2 3 cbr 1000 ------- 0 2.0 3.0 50 50
- 0.466667 2 3 cbr 1000 ------- 0 2.0 3.0 50 50
r 0.467467 2 3 cbr 1000 ------- 0 2.0 3.0 35 35
+ 0.468 2 3 cbr 1000 ------- 0 2.0 3.0 51 51
- 0.468 2 3 cbr 1000 ------- 0 2.0 3.0 51 51
r 0.4688 2 3 cbr 1000 ------- 0 2.0 3.0 36 36
+ 0.469333 2 3 cbr 1000 ------- 0 2.0 3.0 52 52
- 0.469333 2 3 cbr 1000 ------- 0 2.0 3.0 52 52
r 0.470133 2 3 cbr 1000 ------- 0 2.0 3.0 37 37
+ 0.470667 2 3 cbr 1000 ------- 0 2.0 3.0 53 53
- 0.470667 2 3 cbr 1000 ------- 0 2.0 3.0 53 53
r 0.471467 2 3 cbr 1000 ------- 0 2.0 3.0 38 38
+ 0.472 2 3 cbr 1000 ------- 0 2.0 3.0 54 54
- 0.472 2 3 cbr 1000 ------- 0 2.0 3.0 54 54
r 0.4728 2 3 cbr 1000 ------- 0 2.0 3.0 39 39
+ 0.473333 2 3 cbr 1000 ------- 0 2.0 3.0 55 55
- 0.473333 2 3 cbr 1000 ------- 0 2.0 3.0 55 55
r 0.474133 2 3 cbr 1000 ------- 0 2.0 3.0 40 40
+ 0.474667 2 3 cbr 1000 ------- 0 2.0 3.0 56 56
- 0.474667 2 3 cbr 1000 ------- 0 2.0 3.0 56 56
r 0.475467 2 3 cbr 1000 ------- 0 2.0 3.0 41 41
+ 0.476 2 3 cbr 1000 ------- 0 2.0 3.0 57 57
- 0.476 2 3 cbr 1000 ------- 0 2.0 3.0 57 57
r 0.4768 2 3 cbr 1000 ------- 0 2.0 3.0 42 42
+ 0.477333 2 3 cbr 1000 ------- 0 2.0 3.0 58 58
- 0.477333 2 3 cbr 1000 ------- 0 2.0 3.0 58 58
r 0.478133 2 3 cbr 1000 ------- 0 2.0 3.0 43 43
+ 0.478667 2 3 cbr 1000 ------- 0 2.0 3.0 59 59
- 0.478667 2 3 cbr 1000 ------- 0 2.0 3.0 59 59
r 0.479467 2 3 cbr 1000 ------- 0 2.0 3.0 44 44
+ 0.48 2 3 cbr 1000 ------- 0 2.0 3.0 60 60
- 0.48 2 3 cbr 1000 ------- 0 2.0 3.0 60 60
r 0.4808 2 3 cbr 1000 ------- 0 2.0 3.0 45 45
+ 0.481333 2 3 cbr 1000 ------- 0 2.0 3.0 61 61
- 0.481333 2 3 cbr 1000 ------- 0 2.0 3.0 61 61
r 0.482133 2 3 cbr 1000 ------- 0 2.0 3.0 46 46
+ 0.482667 2 3 cbr 1000 ------- 0 2.0 3.0 62 62
- 0.482667 2 3 cbr 1000 ------- 0 2.0 3.0 62 62
r 0.483467 2 3 cbr 1000 ------- 0 2.0 3.0 47 47
+ 0.484 2 3 cbr 1000 ------- 0 2.0 3.0 63 63
- 0.484 2 3 cbr 1000 ------- 0 2.0 3.0 63 63
r 0.4848 2 3 cbr 1000 ------- 0 2.0 3.0 48 48
+ 0.485333 2 3 cbr 1000 ------- 0 2.0 3.0 64 64
- 0.485333 2 3 cbr 1000 ------- 0 2.0 3.0 64 64
r 0.486133 2 3 cbr 1000 ------- 0 2.0 3.0 49 49
+ 0.486667 2 3 cbr 1000 ------- 0 2.0 3.0 65 65
- 0.486667 2 3 cbr 1000 ------- 0 2.0 3.0 65 65
r 0.487467 2 3 cbr 1000 ------- 0 2.0 3.0 50 50
+ 0.488 2 3 cbr 1000 ------- 0 2.0 3.0 66 66
- 0.488 2 3 cbr 1000 ------- 0 2.0 3.0 66 66
r 0.4888 2 3 cbr 1000 ------- 0 2.0 3.0 51 51
+ 0.489333 2 3 cbr 1000 ------- 0 2.0 3.0 67 67
- 0.489333 2 3 cbr 1000 ------- 0 2.0 3.0 67 67
r 0.490133 2 3 cbr 1000 ------- 0 2.0 3.0 52 52
+ 0.490667 2 3 cbr 1000 ------- 0 2.0 3.0 68 68
- 0.490667 2 3 cbr 1000 ------- 0 2.0 3.0 68 68
r 0.491467 2 3 cbr 1000 ------- 0 2.0 3.0 53 53
+ 0.492 2 3 cbr 1000 ------- 0 2.0 3.0 69 69
- 0.492 2 3 cbr 1000 ------- 0 2.0 3.0 69 69
r 0.4928 2 3 cbr 1000 ------- 0 2.0 3.0 54 54
+ 0.493333 2 3 cbr 1000 ------- 0 2.0 3.0 70 70
- 0.493333 2 3 cbr 1000 ------- 0 2.0 3.0 70 70
r 0.494133 2 3 cbr 1000 ------- 0 2.0 3.0 55 55
+ 0.494667 2 3 cbr 1000 ------- 0 2.0 3.0 71 71
- 0.494667 2 3 cbr 1000 ------- 0 2.0 3.0 71 71
r 0.495467 2 3 cbr 1000 ------- 0 2.0 3.0 56 56
+ 0.496 2 3 cbr 1000 ------- 0 2.0 3.0 72 72
- 0.496 2 3 cbr 1000 ------- 0 2.0 3.0 72 72
r 0.4968 2 3 cbr 1000 ------- 0 2.0 3.0 57 57
+ 0.497333 2 3 cbr 1000 ------- 0 2.0 3.0 73 73
- 0.497333 2 3 cbr 1000 ------- 0 2.0 3.0 73 73
r 0.498133 2 3 cbr 1000 ------- 0 2.0 3.0 58 58
+ 0.498667 2 3 cbr 1000 ------- 0 2.0 3.0 74 74
- 0.498667 2 3 cbr 1000 ------- 0 2.0 3.0 74 74
r 0.499467 2 3 cbr 1000 ------- 0 2.0 3.0 59 59
+ 0.5 0 2 tcp 40 ------- 1 0.0 4.0 0 75
- 0.5 0 2 tcp 40 ------- 1 0.0 4.0 0 75
+ 0.5 2 3 cbr 1000 ------- 0 2.0 3.0 75 76
- 0.5 2 3 cbr 1000 ------- 0 2.0 3.0 75 76
r 0.5008 2 3 cbr 1000 ------- 0 2.0 3.0 60 60
+ 0.501333 2 3 cbr 1000 ------- 0 2.0 3.0 76 77
- 0.501333 2 3 cbr 1000 ------- 0 2.0 3.0 76 77
r 0.502133 2 3 cbr 1000 ------- 0 2.0 3.0 61 61
+ 0.502667 2 3 cbr 1000 ------- 0 2.0 3.0 77 78
- 0.502667 2 3 cbr 1000 ------- 0 2.0 3.0 77 78
r 0.503467 2 3 cbr 1000 ------- 0 2.0 3.0 62 62
+ 0.504 2 3 cbr 1000 ------- 0 2.0 3.0 78 79
- 0.504 2 3 cbr 1000 ------- 0 2.0 3.0 78 79
r 0.5048 2 3 cbr 1000 ------- 0 2.0 3.0 63 63
+ 0.505333 2 3 cbr 1000 ------- 0 2.0 3.0 79 80
- 0.505333 2 3 cbr 1000 ------- 0 2.0 3.0 79 80
r 0.506133 2 3 cbr 1000 ------- 0 2.0 3.0 64 64
+ 0.506667 2 3 cbr 1000 ------- 0 2.0 3.0 80 81
- 0.506667 2 3 cbr 1000 ------- 0 2.0 3.0 80 81
r 0.507467 2 3 cbr 1000 ------- 0 2.0 3.0 65 65
+ 0.508 2 3 cbr 1000 ------- 0 2.0 3.0 81 82
- 0.508 2 3 cbr 1000 ------- 0 2.0 3.0 81 82
r 0.5088 2 3 cbr 1000 ------- 0 2.0 3.0 66 66
+ 0.509333 2 3 cbr 1000 ------- 0 2.0 3.0 82 83
- 0.509333 2 3 cbr 1000 ------- 0 2.0 3.0 82 83
r 0.510032 0 2 tcp 40 ------- 1 0.0 4.0 0 75
+ 0.510032 2 3 tcp 40 ------- 1 0.0 4.0 0 75
- 0.510133 2 3 tcp 40 ------- 1 0.0 4.0 0 75
r 0.510133 2 3 cbr 1000 ------- 0 2.0 3.0 67 67
+ 0.510667 2 3 cbr 1000 ------- 0 2.0 3.0 83 84
- 0.510667 2 3 cbr 1000 ------- 0 2.0 3.0 83 84
r 0.511467 2 3 cbr 1000 ------- 0 2.0 3.0 68 68
+ 0.512 2 3 cbr 1000 ------- 0 2.0 3.0 84 85
- 0.512 2 3 cbr 1000 ------- 0 2.0 3.0 84 85
r 0.5128 2 3 cbr 1000 ------- 0 2.0 3.0 69 69
+ 0.513333 2 3 cbr 1000 ------- 0 2.0 3.0 85 86
- 0.513333 2 3 cbr 1000 ------- 0 2.0 3.0 85 86
r 0.514133 2 3 cbr 1000 ------- 0 2.0 3.0 70 70
+ 0.514667 2 3 cbr 1000 ------- 0 2.0 3.0 86 87
- 0.514667 2 3 cbr 1000 ------- 0 2.0 3.0 86 87
r 0.515467 2 3 cbr 1000 ------- 0 2.0 3.0 71 71
+ 0.516 2 3 cbr 1000 ------- 0 2.0 3.0 87 88
- 0.516 2 3 cbr 1000 ------- 0 2.0 3.0 87 88
r 0.5168 2 3 cbr 1000 ------- 0 2.0 3.0 72 72
+ 0.517333 2 3 cbr 1000 ------- 0 2.0 3.0 88 89
- 0.517333 2 3 cbr 1000 ------- 0 2.0 3.0 88 89
r 0.518133 2 3 cbr 1000 ------- 0 2.0 3.0 73 73
+ 0.518667 2 3 cbr 1000 ------- 0 2.0 3.0 89 90
- 0.518667 2 3 cbr 1000 ------- 0 2.0 3.0 89 90
r 0.519467 2 3 cbr 1000 ------- 0 2.0 3.0 74 74
+ 0.52 2 3 cbr 1000 ------- 0 2.0 3.0 90 91
- 0.52 2 3 cbr 1000 ------- 0 2.0 3.0 90 91
r 0.5208 2 3 cbr 1000 ------- 0 2.0 3.0 75 76
+ 0.521333 2 3 cbr 1000 ------- 0 2.0 3.0 91 92
- 0.521333 2 3 cbr 1000 ------- 0 2.0 3.0 91 92
r 0.522133 2 3 cbr 1000 ------- 0 2.0 3.0 76 77
+ 0.522667 2 3 cbr 1000 ------- 0 2.0 3.0 92 93
- 0.522667 2 3 cbr 1000 ------- 0 2.0 3.0 92 93
r 0.523467 2 3 cbr 1000 ------- 0 2.0 3.0 77 78
+ 0.524 2 3 cbr 1000 ------- 0 2.0 3.0 93 94
- 0.524 2 3 cbr 1000 ------- 0 2.0 3.0 93 94
r 0.5248 2 3 cbr 1000 ------- 0 2.0 3.0 78 79
+ 0.525333 2 3 cbr 1000 ------- 0 2.0 3.0 94 95
- 0.525333 2 3 cbr 1000 ------- 0 2.0 3.0 94 95
r 0.526133 2 3 cbr 1000 ------- 0 2.0 3.0 79 80
+ 0.526667 2 3 cbr 1000 ------- 0 2.0 3.0 95 96
- 0.526667 2 3 cbr 1000 ------- 0 2.0 3.0 95 96
r 0.527467 2 3 cbr 1000 ------- 0 2.0 3.0 80 81
+ 0.528 2 3 cbr 1000 ------- 0 2.0 3.0 96 97
- 0.528 2 3 cbr 1000 ------- 0 2.0 3.0 96 97
r 0.5288 2 3 cbr 1000 ------- 0 2.0 3.0 81 82
+ 0.529333 2 3 cbr 1000 ------- 0 2.0 3.0 97 98
- 0.529333 2 3 cbr 1000 ------- 0 2.0 3.0 97 98
r 0.530133 2 3 cbr 1000 ------- 0 2.0 3.0 82 83
r 0.530165 2 3 tcp 40 ------- 1 0.0 4.0 0 75
+ 0.530165 3 4 tcp 40 ------- 1 0.0 4.0 0 75
- 0.530165 3 4 tcp 40 ------- 1 0.0 4.0 0 75
+ 0.530667 2 3 cbr 1000 ------- 0 2.0 3.0 98 99
- 0.530667 2 3 cbr 1000 ------- 0 2.0 3.0 98 99
r 0.531467 2 3 cbr 1000 ------- 0 2.0 3.0 83 84
+ 0.532 2 3 cbr 1000 ------- 0 2.0 3.0 99 100
- 0.532 2 3 cbr 1000 ------- 0 2.0 3.0 99 100
r 0.5328 2 3 cbr 1000 ------- 0 2.0 3.0 84 85
+ 0.533333 2 3 cbr 1000 ------- 0 2.0 3.0 100 101
- 0.533333 2 3 cbr 1000 ------- 0 2.0 3.0 100 101
r 0.534133 2 3 cbr 1000 ------- 0 2.0 3.0 85 86
+ 0.534667 2 3 cbr 1000 ------- 0 2.0 3.0 101 102
- 0.534667 2 3 cbr 1000 ------- 0 2.0 3.0 101 102
r 0.535467 2 3 cbr 1000 ------- 0 2.0 3.0 86 87
+ 0.536 2 3 cbr 1000 ------- 0 2.0 3.0 102 103
- 0.536 2 3 cbr 1000 ------- 0 2.0 3.0 102 103
r 0.5368 2 3 cbr 1000 ------- 0 2.0 3.0 87 88
+ 0.537333 2 3 cbr 1000 ------- 0 2.0 3.0 103 104
- 0.537333 2 3 cbr 1000 ------- 0 2.0 3.0 103 104
r 0.538133 2 3 cbr 1000 ------- 0 2.0 3.0 88 89
+ 0.538667 2 3 cbr 1000 ------- 0 2.0 3.0 104 105
- 0.538667 2 3 cbr 1000 ------- 0 2.0 3.0 104 105
r 0.539467 2 3 cbr 1000 ------- 0 2.0 3.0 89 90
+ 0.54 2 3 cbr 1000 ------- 0 2.0 3.0 105 106
- 0.54 2 3 cbr 1000 ------- 0 2.0 3.0 105 106
r 0.540197 3 4 tcp 40 ------- 1 0.0 4.0 0 75
+ 0.540197 4 3 ack 40 ------- 1 4.0 0.0 0 107
- 0.540197 4 3 ack 40 ------- 1 4.0 0.0 0 107
r 0.5408 2 3 cbr 1000 ------- 0 2.0 3.0 90 91
+ 0.541333 2 3 cbr 1000 ------- 0 2.0 3.0 106 108
- 0.541333 2 3 cbr 1000 ------- 0 2.0 3.0 106 108
r 0.542133 2 3 cbr 1000 ------- 0 2.0 3.0 91 92
+ 0.542667 2 3 cbr 1000 ------- 0 2.0 3.0 107 109
- 0.542667 2 3 cbr 1000 ------- 0 2.0 3.0 107 109
r 0.543467 2 3 cbr 1000 ------- 0 2.0 3.0 92 93
+ 0.544 2 3 cbr 1000 ------- 0 2.0 3.0 108 110
- 0.544 2 3 cbr 1000 ------- 0 2.0 3.0 108 110
r 0.5448 2 3 cbr 1000 ------- 0 2.0 3.0 93 94
+ 0.545333 2 3 cbr 1000 ------- 0 2.0 3.0 109 111
- 0.545333 2 3 cbr 1000 ------- 0 2.0 3.0 109 111
r 0.546133 2 3 cbr 1000 ------- 0 2.0 3.0 94 95
+ 0.546667 2 3 cbr 1000 ------- 0 2.0 3.0 110 112
- 0.546667 2 3 cbr 1000 ------- 0 2.0 3.0 110 112
r 0.547467 2 3 cbr 1000 ------- 0 2.0 3.0 95 96
+ 0.548 2 3 cbr 1000 ------- 0 2.0 3.0 111 113
- 0.548 2 3 cbr 1000 ------- 0 2.0 3.0 111 113
r 0.5488 2 3 cbr 1000 ------- 0 2.0 3.0 96 97
+ 0.549333 2 3 cbr 1000 ------- 0 2.0 3.0 112 114
- 0.549333 2 3 cbr 1000 ------- 0 2.0 3.0 112 114
r 0.550133 2 3 cbr 1000 ------- 0 2.0 3.0 97 98
r 0.550229 4 3 ack 40 ------- 1 4.0 0.0 0 107
+ 0.550229 3 2 ack 40 ------- 1 4.0 0.0 0 107
- 0.550229 3 2 ack 40 ------- 1 4.0 0.0 0 107
+ 0.550667 2 3 cbr 1000 ------- 0 2.0 3.0 113 115
- 0.550667 2 3 cbr 1000 ------- 0 2.0 3.0 113 115
r 0.551467 2 3 cbr 1000 ------- 0 2.0 3.0 98 99
+ 0.552 2 3 cbr 1000 ------- 0 2.0 3.0 114 116
- 0.552 2 3 cbr 1000 ------- 0 2.0 3.0 114 116
r 0.5528 2 3 cbr 1000 ------- 0 2.0 3.0 99 100
+ 0.553333 2 3 cbr 1000 ------- 0 2.0 3.0 115 117
- 0.553333 2 3 cbr 1000 ------- 0 2.0 3.0 115 117
r 0.554133 2 3 cbr 1000 ------- 0 2.0 3.0 100 101
+ 0.554667 2 3 cbr 1000 ------- 0 2.0 3.0 116 118
- 0.554667 2 3 cbr 1000 ------- 0 2.0 3.0 116 118
r 0.555467 2 3 cbr 1000 ------- 0 2.0 3.0 101 102
+ 0.556 2 3 cbr 1000 ------- 0 2.0 3.0 117 119
- 0.556 2 3 cbr 1000 ------- 0 2.0 3.0 117 119
r 0.5568 2 3 cbr 1000 ------- 0 2.0 3.0 102 103
+ 0.557333 2 3 cbr 1000 ------- 0 2.0 3.0 118 120
- 0.557333 2 3 cbr 1000 ------- 0 2.0 3.0 118 120
r 0.558133 2 3 cbr 1000 ------- 0 2.0 3.0 103 104
+ 0.558667 2 3 cbr 1000 ------- 0 2.0 3.0 119 121
- 0.558667 2 3 cbr 1000 ------- 0 2.0 3.0 119 121
r 0.559467 2 3 cbr 1000 ------- 0 2.0 3.0 104 105
+ 0.56 2 3 cbr 1000 ------- 0 2.0 3.0 120 122
- 0.56 2 3 cbr 1000 ------- 0 2.0 3.0 120 122
r 0.5608 2 3 cbr 1000 ------- 0 2.0 3.0 105 106
+ 0.561333 2 3 cbr 1000 ------- 0 2.0 3.0 121 123
- 0.561333 2 3 cbr 1000 ------- 0 2.0 3.0 121 123
r 0.562133 2 3 cbr 1000 ------- 0 2.0 3.0 106 108
+ 0.562667 2 3 cbr 1000 ------- 0 2.0 3.0 122 124
- 0.562667 2 3 cbr 1000 ------- 0 2.0 3.0 122 124
r 0.563467 2 3 cbr 1000 ------- 0 2.0 3.0 107 109
+ 0.564 2 3 cbr 1000 ------- 0 2.0 3.0 123 125
- 0.564 2 3 cbr 1000 ------- 0 2.0 3.0 123 125
r 0.5648 2 3 cbr 1000 ------- 0 2.0 3.0 108 110
+ 0.565333 2 3 cbr 1000 ------- 0 2.0 3.0 124 126
- 0.565333 2 3 cbr 1000 ------- 0 2.0 3.0 124 126
r 0.566133 2 3 cbr 1000 ------- 0 2.0 3.0 109 111
+ 0.566667 2 3 cbr 1000 ------- 0 2.0 3.0 125 127
- 0.566667 2 3 cbr 1000 ------- 0 2.0 3.0 125 127
r 0.567467 2 3 cbr 1000 ------- 0 2.0 3.0 110 112
+ 0.568 2 3 cbr 1000 ------- 0 2.0 3.0 126 128
- 0.568 2 3 cbr 1000 ------- 0 2.0 3.0 126 128
r 0.5688 2 3 cbr 1000 ------- 0 2.0 3.0 111 113
+ 0.569333 2 3 cbr 1000 ------- 0 2.0 3.0 127 129
- 0.569333 2 3 cbr 1000 ------- 0 2.0 3.0 127 129
r 0.570133 2 3 cbr 1000 ------- 0 2.0 3.0 112 114
r 0.570261 3 2 ack 40 ------- 1 4.0 0.0 0 107
+ 0.570261 2 0 ack 40 ------- 1 4.0 0.0 0 107
- 0.570261 2 0 ack 40 ------- 1 4.0 0.0 0 107
+ 0.570667 2 3 cbr 1000 ------- 0 2.0 3.0 128 130
- 0.570667 2 3 cbr 1000 ------- 0 2.0 3.0 128 130
r 0.571467 2 3 cbr 1000 ------- 0 2.0 3.0 113 115
+ 0.572 2 3 cbr 1000 ------- 0 2.0 3.0 129 131
- 0.572 2 3 cbr 1000 ------- 0 2.0 3.0 129 131
r 0.5728 2 3 cbr 1000 ------- 0 2.0 3.0 114 116
+ 0.573333 2 3 cbr 1000 ------- 0 2.0 3.0 130 132
- 0.573333 2 3 cbr 1000 ------- 0 2.0 3.0 130 132
r 0.574133 2 3 cbr 1000 ------- 0 2.0 3.0 115 117
+ 0.574667 2 3 cbr 1000 ------- 0 2.0 3.0 131 133
- 0.574667 2 3 cbr 1000 ------- 0 2.0 3.0 131 133
r 0.575467 2 3 cbr 1000 ------- 0 2.0 3.0 116 118
+ 0.576 2 3 cbr 1000 ------- 0 2.0 3.0 132 134
- 0.576 2 3 cbr 1000 ------- 0 2.0 3.0 132 134
r 0.5768 2 3 cbr 1000 ------- 0 2.0 3.0 117 119
+ 0.577333 2 3 cbr 1000 ------- 0 2.0 3.0 133 135
- 0.577333 2 3 cbr 1000 ------- 0 2.0 3.0 133 135
r 0.578133 2 3 cbr 1000 ------- 0 2.0 3.0 118 120
+ 0.578667 2 3 cbr 1000 ------- 0 2.0 3.0 134 136
- 0.578667 2 3 cbr 1000 ------- 0 2.0 3.0 134 136
r 0.579467 2 3 cbr 1000 ------- 0 2.0 3.0 119 121
+ 0.58 2 3 cbr 1000 ------- 0 2.0 3.0 135 137
- 0.58 2 3 cbr 1000 ------- 0 2.0 3.0 135 137
r 0.580293 2 0 ack 40 ------- 1 4.0 0.0 0 107
+ 0.580293 0 2 tcp 1040 ------- 1 0.0 4.0 1 138
- 0.580293 0 2 tcp 1040 ------- 1 0.0 4.0 1 138
+ 0.580293 0 2 tcp 1040 ------- 1 0.0 4.0 2 139
r 0.5808 2 3 cbr 1000 ------- 0 2.0 3.0 120 122
- 0.581125 0 2 tcp 1040 ------- 1 0.0 4.0 2 139
+ 0.581333 2 3 cbr 1000 ------- 0 2.0 3.0 136 140
- 0.581333 2 3 cbr 1000 ------- 0 2.0 3.0 136 140
r 0.582133 2 3 cbr 1000 ------- 0 2.0 3.0 121 123
+ 0.582667 2 3 cbr 1000 ------- 0 2.0 3.0 137 141
- 0.582667 2 3 cbr 1000 ------- 0 2.0 3.0 137 141
r 0.583467 2 3 cbr 1000 ------- 0 2.0 3.0 122 124
+ 0.584 2 3 cbr 1000 ------- 0 2.0 3.0 138 142
- 0.584 2 3 cbr 1000 ------- 0 2.0 3.0 138 142
r 0.5848 2 3 cbr 1000 ------- 0 2.0 3.0 123 125
+ 0.585333 2 3 cbr 1000 ------- 0 2.0 3.0 139 143
- 0.585333 2 3 cbr 1000 ------- 0 2.0 3.0 139 143
r 0.586133 2 3 cbr 1000 ------- 0 2.0 3.0 124 126
+ 0.586667 2 3 cbr 1000 ------- 0 2.0 3.0 140 144
- 0.586667 2 3 cbr 1000 ------- 0 2.0 3.0 140 144
r 0.587467 2 3 cbr 1000 ------- 0 2.0 3.0 125 127
+ 0.588 2 3 cbr 1000 ------- 0 2.0 3.0 141 145
- 0.588 2 3 cbr 1000 ------- 0 2.0 3.0 141 145
r 0.5888 2 3 cbr 1000 ------- 0 2.0 3.0 126 128
+ 0.589333 2 3 cbr 1000 ------- 0 2.0 3.0 142 146
- 0.589333 2 3 cbr 1000 ------- 0 2.0 3.0 142 146
r 0.590133 2 3 cbr 1000 ------- 0 2.0 3.0 127 129
+ 0.590667 2 3 cbr 1000 ------- 0 2.0 3.0 143 147
- 0.590667 2 3 cbr 1000 ------- 0 2.0 3.0 143 147
r 0.591125 0 2 tcp 1040 ------- 1 0.0 4.0 1 138
+ 0.591125 2 3 tcp 1040 ------- 1 0.0 4.0 1 138
- 0.591467 2 3 tcp 1040 ------- 1 0.0 4.0 1 138
r 0.591467 2 3 cbr 1000 ------- 0 2.0 3.0 128 130
r 0.591957 0 2 tcp 1040 ------- 1 0.0 4.0 2 139
+ 0.591957 2 3 tcp 1040 ------- 1 0.0 4.0 2 139
+ 0.592 2 3 cbr 1000 ------- 0 2.0 3.0 144 148
- 0.592299 2 3 tcp 1040 ------- 1 0.0 4.0 2 139
r 0.5928 2 3 cbr 1000 ------- 0 2.0 3.0 129 131
- 0.593131 2 3 cbr 1000 ------- 0 2.0 3.0 144 148
+ 0.593333 2 3 cbr 1000 ------- 0 2.0 3.0 145 149
- 0.593931 2 3 cbr 1000 ------- 0 2.0 3.0 145 149
r 0.594133 2 3 cbr 1000 ------- 0 2.0 3.0 130 132
+ 0.594667 2 3 cbr 1000 ------- 0 2.0 3.0 146 150
- 0.594731 2 3 cbr 1000 ------- 0 2.0 3.0 146 150
r 0.595467 2 3 cbr 1000 ------- 0 2.0 3.0 131 133
+ 0.596 2 3 cbr 1000 ------- 0 2.0 3.0 147 151
- 0.596 2 3 cbr 1000 ------- 0 2.0 3.0 147 151
r 0.5968 2 3 cbr 1000 ------- 0 2.0 3.0 132 134
+ 0.597333 2 3 cbr 1000 ------- 0 2.0 3.0 148 152
- 0.597333 2 3 cbr 1000 ------- 0 2.0 3.0 148 152
r 0.598133 2 3 cbr 1000 ------- 0 2.0 3.0 133 135
+ 0.598667 2 3 cbr 1000 ------- 0 2.0 3.0 149 153
- 0.598667 2 3 cbr 1000 ------- 0 2.0 3.0 149 153
r 0.599467 2 3 cbr 1000 ------- 0 2.0 3.0 134 136
+ 0.6 2 3 cbr 1000 ------- 0 2.0 3.0 150 154
- 0.6 2 3 cbr 1000 ------- 0 2.0 3.0 150 154
r 0.6008 2 3 cbr 1000 ------- 0 2.0 3.0 135 137
+ 0.601333 2 3 cbr 1000 ------- 0 2.0 3.0 151 155
- 0.601333 2 3 cbr 1000 ------- 0 2.0 3.0 151 155
r 0.602133 2 3 cbr 1000 ------- 0 2.0 3.0 136 140
+ 0.602667 2 3 cbr 1000 ------- 0 2.0 3.0 152 156
- 0.602667 2 3 cbr 1000 ------- 0 2.0 3.0 152 156
r 0.603467 2 3 cbr 1000 ------- 0 2.0 3.0 137 141
+ 0.604 2 3 cbr 1000 ------- 0 2.0 3.0 153 157
- 0.604 2 3 cbr 1000 ------- 0 2.0 3.0 153 157
r 0.6048 2 3 cbr 1000 ------- 0 2.0 3.0 138 142
+ 0.605333 2 3 cbr 1000 ------- 0 2.0 3.0 154 158
- 0.605333 2 3 cbr 1000 ------- 0 2.0 3.0 154 158
r 0.606133 2 3 cbr 1000 ------- 0 2.0 3.0 139 143
+ 0.606667 2 3 cbr 1000 ------- 0 2.0 3.0 155 159
- 0.606667 2 3 cbr 1000 ------- 0 2.0 3.0 155 159
r 0.607467 2 3 cbr 1000 ------- 0 2.0 3.0 140 144
+ 0.608 2 3 cbr 1000 ------- 0 2.0 3.0 156 160
- 0.608 2 3 cbr 1000 ------- 0 2.0 3.0 156 160
r 0.6088 2 3 cbr 1000 ------- 0 2.0 3.0 141 145
+ 0.609333 2 3 cbr 1000 ------- 0 2.0 3.0 157 161
- 0.609333 2 3 cbr 1000 ------- 0 2.0 3.0 157 161
r 0.610133 2 3 cbr 1000 ------- 0 2.0 3.0 142 146
+ 0.610667 2 3 cbr 1000 ------- 0 2.0 3.0 158 162
- 0.610667 2 3 cbr 1000 ------- 0 2.0 3.0 158 162
r 0.611467 2 3 cbr 1000 ------- 0 2.0 3.0 143 147
+ 0.612 2 3 cbr 1000 ------- 0 2.0 3.0 159 163
- 0.612 2 3 cbr 1000 ------- 0 2.0 3.0 159 163
r 0.612299 2 3 tcp 1040 ------- 1 0.0 4.0 1 138
+ 0.612299 3 4 tcp 1040 ------- 1 0.0 4.0 1 138
- 0.612299 3 4 tcp 1040 ------- 1 0.0 4.0 1 138
r 0.613131 2 3 tcp 1040 ------- 1 0.0 4.0 2 139
+ 0.613131 3 4 tcp 1040 ------- 1 0.0 4.0 2 139
- 0.613131 3 4 tcp 1040 ------- 1 0.0 4.0 2 139
+ 0.613333 2 3 cbr 1000 ------- 0 2.0 3.0 160 164
- 0.613333 2 3 cbr 1000 ------- 0 2.0 3.0 160 164
r 0.613931 2 3 cbr 1000 ------- 0 2.0 3.0 144 148
+ 0.614667 2 3 cbr 1000 ------- 0 2.0 3.0 161 165
- 0.614667 2 3 cbr 1000 ------- 0 2.0 3.0 161 165
r 0.614731 2 3 cbr 1000 ------- 0 2.0 3.0 145 149
r 0.615531 2 3 cbr 1000 ------- 0 2.0 3.0 146 150
+ 0.616 2 3 cbr 1000 ------- 0 2.0 3.0 162 166
- 0.616 2 3 cbr 1000 ------- 0 2.0 3.0 162 166
r 0.6168 2 3 cbr 1000 ------- 0 2.0 3.0 147 151
+ 0.617333 2 3 cbr 1000 ------- 0 2.0 3.0 163 167
- 0.617333 2 3 cbr 1000 ------- 0 2.0 3.0 163 167
r 0.618133 2 3 cbr 1000 ------- 0 2.0 3.0 148 152
+ 0.618667 2 3 cbr 1000 ------- 0 2.0 3.0 164 168
- 0.618667 2 3 cbr 1000 ------- 0 2.0 3.0 164 168
r 0.619467 2 3 cbr 1000 ------- 0 2.0 3.0 149 153
+ 0.62 2 3 cbr 1000 ------- 0 2.0 3.0 165 169
- 0.62 2 3 cbr 1000 ------- 0 2.0 3.0 165 169
r 0.6208 2 3 cbr 1000 ------- 0 2.0 3.0 150 154
+ 0.621333 2 3 cbr 1000 ------- 0 2.0 3.0 166 170
- 0.621333 2 3 cbr 1000 ------- 0 2.0 3.0 166 170
r 0.622133 2 3 cbr 1000 ------- 0 2.0 3.0 151 155
+ 0.622667 2 3 cbr 1000 ------- 0 2.0 3.0 167 171
- 0.622667 2 3 cbr 1000 ------- 0 2.0 3.0 167 171
r 0.623131 3 4 tcp 1040 ------- 1 0.0 4.0 1 138
+ 0.623131 4 3 ack 40 ------- 1 4.0 0.0 1 172
- 0.623131 4 3 ack 40 ------- 1 4.0 0.0 1 172
r 0.623467 2 3 cbr 1000 ------- 0 2.0 3.0 152 156
r 0.623963 3 4 tcp 1040 ------- 1 0.0 4.0 2 139
+ 0.623963 4 3 ack 40 ------- 1 4.0 0.0 2 173
- 0.623963 4 3 ack 40 ------- 1 4.0 0.0 2 173
+ 0.624 2 3 cbr 1000 ------- 0 2.0 3.0 168 174
- 0.624 2 3 cbr 1000 ------- 0 2.0 3.0 168 174
r 0.6248 2 3 cbr 1000 ------- 0 2.0 3.0 153 157
+ 0.625333 2 3 cbr 1000 ------- 0 2.0 3.0 169 175
- 0.625333 2 3 cbr 1000 ------- 0 2.0 3.0 169 175
r 0.626133 2 3 cbr 1000 ------- 0 2.0 3.0 154 158
+ 0.626667 2 3 cbr 1000 ------- 0 2.0 3.0 170 176
- 0.626667 2 3 cbr 1000 ------- 0 2.0 3.0 170 176
r 0.627467 2 3 cbr 1000 ------- 0 2.0 3.0 155 159
+ 0.628 2 3 cbr 1000 ------- 0 2.0 3.0 171 177
- 0.628 2 3 cbr 1000 ------- 0 2.0 3.0 171 177
r 0.6288 2 3 cbr 1000 ------- 0 2.0 3.0 156 160
+ 0.629333 2 3 cbr 1000 ------- 0 2.0 3.0 172 178
- 0.629333 2 3 cbr 1000 ------- 0 2.0 3.0 172 178
r 0.630133 2 3 cbr 1000 ------- 0 2.0 3.0 157 161
+ 0.630667 2 3 cbr 1000 ------- 0 2.0 3.0 173 179
- 0.630667 2 3 cbr 1000 ------- 0 2.0 3.0 173 179
r 0.631467 2 3 cbr 1000 ------- 0 2.0 3.0 158 162
+ 0.632 2 3 cbr 1000 ------- 0 2.0 3.0 174 180
- 0.632 2 3 cbr 1000 ------- 0 2.0 3.0 174 180
r 0.6328 2 3 cbr 1000 ------- 0 2.0 3.0 159 163
r 0.633163 4 3 ack 40 ------- 1 4.0 0.0 1 172
+ 0.633163 3 2 ack 40 ------- 1 4.0 0.0 1 172
- 0.633163 3 2 ack 40 ------- 1 4.0 0.0 1 172
+ 0.633333 2 3 cbr 1000 ------- 0 2.0 3.0 175 181
- 0.633333 2 3 cbr 1000 ------- 0 2.0 3.0 175 181
r 0.633995 4 3 ack 40 ------- 1 4.0 0.0 2 173
+ 0.633995 3 2 ack 40 ------- 1 4.0 0.0 2 173
- 0.633995 3 2 ack 40 ------- 1 4.0 0.0 2 173
r 0.634133 2 3 cbr 1000 ------- 0 2.0 3.0 160 164
+ 0.634667 2 3 cbr 1000 ------- 0 2.0 3.0 176 182
- 0.634667 2 3 cbr 1000 ------- 0 2.0 3.0 176 182
r 0.635467 2 3 cbr 1000 ------- 0 2.0 3.0 161 165
+ 0.636 2 3 cbr 1000 ------- 0 2.0 3.0 177 183
- 0.636 2 3 cbr 1000 ------- 0 2.0 3.0 177 183
r 0.6368 2 3 cbr 1000 ------- 0 2.0 3.0 162 166
+ 0.637333 2 3 cbr 1000 ------- 0 2.0 3.0 178 184
- 0.637333 2 3 cbr 1000 ------- 0 2.0 3.0 178 184
r 0.638133 2 3 cbr 1000 ------- 0 2.0 3.0 163 167
+ 0.638667 2 3 cbr 1000 ------- 0 2.0 3.0 179 185
- 0.638667 2 3 cbr 1000 ------- 0 2.0 3.0 179 185
r 0.639467 2 3 cbr 1000 ------- 0 2.0 3.0 164 168
+ 0.64 2 3 cbr 1000 ------- 0 2.0 3.0 180 186
- 0.64 2 3 cbr 1000 ------- 0 2.0 3.0 180 186
r 0.6408 2 3 cbr 1000 ------- 0 2.0 3.0 165 169
+ 0.641333 2 3 cbr 1000 ------- 0 2.0 3.0 181 187
- 0.641333 2 3 cbr 1000 ------- 0 2.0 3.0 181 187
r 0.642133 2 3 cbr 1000 ------- 0 2.0 3.0 166 170
+ 0.642667 2 3 cbr 1000 ------- 0 2.0 3.0 182 188
- 0.642667 2 3 cbr 1000 ------- 0 2.0 3.0 182 188
r 0.643467 2 3 cbr 1000 ------- 0 2.0 3.0 167 171
+ 0.644 2 3 cbr 1000 ------- 0 2.0 3.0 183 189
- 0.644 2 3 cbr 1000 ------- 0 2.0 3.0 183 189
r 0.6448 2 3 cbr 1000 ------- 0 2.0 3.0 168 174
+ 0.645333 2 3 cbr 1000 ------- 0 2.0 3.0 184 190
- 0.645333 2 3 cbr 1000 ------- 0 2.0 3.0 184 190
r 0.646133 2 3 cbr 1000 ------- 0 2.0 3.0 169 175
+ 0.646667 2 3 cbr 1000 ------- 0 2.0 3.0 185 191
- 0.646667 2 3 cbr 1000 ------- 0 2.0 3.0 185 191
r 0.647467 2 3 cbr 1000 ------- 0 2.0 3.0 170 176
+ 0.648 2 3 cbr 1000 ------- 0 2.0 3.0 186 192
- 0.648 2 3 cbr 1000 ------- 0 2.0 3.0 186 192
r 0.6488 2 3 cbr 1000 ------- 0 2.0 3.0 171 177
+ 0.649333 2 3 cbr 1000 ------- 0 2.0 3.0 187 193
- 0.649333 2 3 cbr 1000 ------- 0 2.0 3.0 187 193
r 0.650133 2 3 cbr 1000 ------- 0 2.0 3.0 172 178
+ 0.650667 2 3 cbr 1000 ------- 0 2.0 3.0 188 194
- 0.650667 2 3 cbr 1000 ------- 0 2.0 3.0 188 194
r 0.651467 2 3 cbr 1000 ------- 0 2.0 3.0 173 179
+ 0.652 2 3 cbr 1000 ------- 0 2.0 3.0 189 195
- 0.652 2 3 cbr 1000 ------- 0 2.0 3.0 189 195
r 0.6528 2 3 cbr 1000 ------- 0 2.0 3.0 174 180
r 0.653195 3 2 ack 40 ------- 1 4.0 0.0 1 172
+ 0.653195 2 0 ack 40 ------- 1 4.0 0.0 1 172
- 0.653195 2 0 ack 40 ------- 1 4.0 0.0 1 172
+ 0.653333 2 3 cbr 1000 ------- 0 2.0 3.0 190 196
- 0.653333 2 3 cbr 1000 ------- 0 2.0 3.0 190 196
r 0.654027 3 2 ack 40 ------- 1 4.0 0.0 2 173
+ 0.654027 2 0 ack 40 ------- 1 4.0 0.0 2 173
- 0.654027 2 0 ack 40 ------- 1 4.0 0.0 2 173
r 0.654133 2 3 cbr 1000 ------- 0 2.0 3.0 175 181
+ 0.654667 2 3 cbr 1000 ------- 0 2.0 3.0 191 197
- 0.654667 2 3 cbr 1000 ------- 0 2.0 3.0 191 197
r 0.655467 2 3 cbr 1000 ------- 0 2.0 3.0 176 182
+ 0.656 2 3 cbr 1000 ------- 0 2.0 3.0 192 198
- 0.656 2 3 cbr 1000 ------- 0 2.0 3.0 192 198
r 0.6568 2 3 cbr 1000 ------- 0 2.0 3.0 177 183
+ 0.657333 2 3 cbr 1000 ------- 0 2.0 3.0 193 199
- 0.657333 2 3 cbr 1000 ------- 0 2.0 3.0 193 199
r 0.658133 2 3 cbr 1000 ------- 0 2.0 3.0 178 184
+ 0.658667 2 3 cbr 1000 ------- 0 2.0 3.0 194 200
- 0.658667 2 3 cbr 1000 ------- 0 2.0 3.0 194 200
r 0.659467 2 3 cbr 1000 ------- 0 2.0 3.0 179 185
+ 0.66 2 3 cbr 1000 ------- 0 2.0 3.0 195 201
- 0.66 2 3 cbr 1000 ------- 0 2.0 3.0 195 201
r 0.6608 2 3 cbr 1000 ------- 0 2.0 3.0 180 186
+ 0.661333 2 3 cbr 1000 ------- 0 2.0 3.0 196 202
- 0.661333 2 3 cbr 1000 ------- 0 2.0 3.0 196 202