+ 0.4 2 3 cbr 1000 ------- 0 2.0 3.0 0 0
- 0.4 2 3 cbr 1000 ------- 0 2.0 3.0 0 0
+ 0.402667 2 3 cbr 1000 ------- 0 2.0 3.0 1 1
- 0.402667 2 3 cbr 1000 ------- 0 2.0 3.0 1 1
+ 0.405333 2 3 cbr 1000 ------- 0 2.0 3.0 2 2
- 0.405333 2 3 cbr 1000 ------- 0 2.0 3.0 2 2
+ 0.408 2 3 cbr 1000 ------- 0 2.0 3.0 3 3
- 0.408 2 3 cbr 1000 ------- 0 2.0 3.0 3 3
+ 0.410667 2 3 cbr 1000 ------- 0 2.0 3.0 4 4
- 0.410667 2 3 cbr 1000 ------- 0 2.0 3.0 4 4
+ 0.413333 2 3 cbr 1000 ------- 0 2.0 3.0 5 5
- 0.413333 2 3 cbr 1000 ------- 0 2.0 3.0 5 5
+ 0.416 2 3 cbr 1000 ------- 0 2.0 3.0 6 6
- 0.416 2 3 cbr 1000 ------- 0 2.0 3.0 6 6
+ 0.418667 2 3 cbr 1000 ------- 0 2.0 3.0 7 7
- 0.418667 2 3 cbr 1000 ------- 0 2.0 3.0 7 7
r 0.4208 2 3 cbr 1000 ------- 0 2.0 3.0 0 0
+ 0.421333 2 3 cbr 1000 ------- 0 2.0 3.0 8 8
- 0.421333 2 3 cbr 1000 ------- 0 2.0 3.0 8 8
r 0.423467 2 3 cbr 1000 ------- 0 2.0 3.0 1 1
+ 0.424 2 3 cbr 1000 ------- 0 2.0 3.0 9 9
- 0.424 2 3 cbr 1000 ------- 0 2.0 3.0 9 9
r 0.426133 2 3 cbr 1000 ------- 0 2.0 3.0 2 2
+ 0.426667 2 3 cbr 1000 ------- 0 2.0 3.0 10 10
- 0.426667 2 3 cbr 1000 ------- 0 2.0 3.0 10 10
r 0.4288 2 3 cbr 1000 ------- 0 2.0 3.0 3 3
+ 0.429333 2 3 cbr 1000 ------- 0 2.0 3.0 11 11
- 0.429333 2 3 cbr 1000 ------- 0 2.0 3.0 11 11
r 0.431467 2 3 cbr 1000 ------- 0 2.0 3.0 4 4
+ 0.432 2 3 cbr 1000 ------- 0 2.0 3.0 12 12
- 0.432 2 3 cbr 1000 ------- 0 2.0 3.0 12 12
r 0.434133 2 3 cbr 1000 ------- 0 2.0 3.0 5 5
+ 0.434667 2 3 cbr 1000 ------- 0 2.0 3.0 13 13
- 0.434667 2 3 cbr 1000 ------- 0 2.0 3.0 13 13
r 0.4368 2 3 cbr 1000 ------- 0 2.0 3.0 6 6
+ 0.437333 2 3 cbr 1000 ------- 0 2.0 3.0 14 14
- 0.437333 2 3 cbr 1000 ------- 0 2.0 3.0 14 14
r 0.439467 2 3 cbr 1000 ------- 0 2.0 3.0 7 7
+ 0.44 2 3 cbr 1000 ------- 0 2.0 3.0 15 15
- 0.44 2 3 cbr 1000 ------- 0 2.0 3.0 15 15
r 0.442133 2 3 cbr 1000 ------- 0 2.0 3.0 8 8
+ 0.442667 2 3 cbr 1000 ------- 0 2.0 3.0 16 16
- 0.442667 2 3 cbr 1000 ------- 0 2.0 3.0 16 16
r 0.4448 2 3 cbr 1000 ------- 0 2.0 3.0 9 9
+ 0.445333 2 3 cbr 1000 ------- 0 2.0 3.0 17 17
- 0.445333 2 3 cbr 1000 ------- 0 2.0 3.0 17 17
r 0.447467 2 3 cbr 1000 ------- 0 2.0 3.0 10 10
+ 0.448 2 3 cbr 1000 ------- 0 2.0 3.0 18 18
- 0.448 2 3 cbr 1000 ------- 0 2.0 3.0 18 18
r 0.450133 2 3 cbr 1000 ------- 0 2.0 3.0 11 11
+ 0.450667 2 3 cbr 1000 ------- 0 2.0 3.0 19 19
- 0.450667 2 3 cbr 1000 ------- 0 2.0 3.0 19 19
r 0.4528 2 3 cbr 1000 ------- 0 2.0 3.0 12 12
+ 0.453333 2 3 cbr 1000 ------- 0 2.0 3.0 20 20
- 0.453333 2 3 cbr 1000 ------- 0 2.0 3.0 20 20
r 0.455467 2 3 cbr 1000 ------- 0 2.0 3.0 13 13
+ 0.456 2 3 cbr 1000 ------- 0 2.0 3.0 21 21
- 0.456 2 3 cbr 1000 ------- 0 2.0 3.0 21 21
r 0.458133 2 3 cbr 1000 ------- 0 2.0 3.0 14 14
+ 0.458667 2 3 cbr 1000 ------- 0 2.0 3.0 22 22
- 0.458667 2 3 cbr 1000 ------- 0 2.0 3.0 22 22
r 0.4608 2 3 cbr 1000 ------- 0 2.0 3.0 15 15
+ 0.461333 2 3 cbr 1000 ------- 0 2.0 3.0 23 23
- 0.461333 2 3 cbr 1000 ------- 0 2.0 3.0 23 23
r 0.463467 2 3 cbr 1000 ------- 0 2.0 3.0 16 16
+ 0.464 2 3 cbr 1000 ------- 0 2.0 3.0 24 24
- 0.464 2 3 cbr 1000 ------- 0 2.0 3.0 24 24
r 0.466133 2 3 cbr 1000 ------- 0 2.0 3.0 17 17
+ 0.466667 2 3 cbr 1000 ------- 0 2.0 3.0 25 25
- 0.466667 2 3 cbr 1000 ------- 0 2.0 3.0 25 25
r 0.4688 2 3 cbr 1000 ------- 0 2.0 3.0 18 18
+ 0.469333 2 3 cbr 1000 ------- 0 2.0 3.0 26 26
- 0.469333 2 3 cbr 1000 ------- 0 2.0 3.0 26 26
r 0.471467 2 3 cbr 1000 ------- 0 2.0 3.0 19 19
+ 0.472 2 3 cbr 1000 ------- 0 2.0 3.0 27 27
- 0.472 2 3 cbr 1000 ------- 0 2.0 3.0 27 27
r 0.474133 2 3 cbr 1000 ------- 0 2.0 3.0 20 20
+ 0.474667 2 3 cbr 1000 ------- 0 2.0 3.0 28 28
- 0.474667 2 3 cbr 1000 ------- 0 2.0 3.0 28 28
r 0.4768 2 3 cbr 1000 ------- 0 2.0 3.0 21 21
+ 0.477333 2 3 cbr 1000 ------- 0 2.0 3.0 29 29
- 0.477333 2 3 cbr 1000 ------- 0 2.0 3.0 29 29
r 0.479467 2 3 cbr 1000 ------- 0 2.0 3.0 22 22
+ 0.48 2 3 cbr 1000 ------- 0 2.0 3.0 30 30
- 0.48 2 3 cbr 1000 ------- 0 2.0 3.0 30 30
r 0.482133 2 3 cbr 1000 ------- 0 2.0 3.0 23 23
+ 0.482667 2 3 cbr 1000 ------- 0 2.0 3.0 31 31
- 0.482667 2 3 cbr 1000 ------- 0 2.0 3.0 31 31
r 0.4848 2 3 cbr 1000 ------- 0 2.0 3.0 24 24
+ 0.485333 2 3 cbr 1000 ------- 0 2.0 3.0 32 32
- 0.485333 2 3 cbr 1000 ------- 0 2.0 3.0 32 32
r 0.487467 2 3 cbr 1000 ------- 0 2.0 3.0 25 25
+ 0.488 2 3 cbr 1000 ------- 0 2.0 3.0 33 33
- 0.488 2 3 cbr 1000 ------- 0 2.0 3.0 33 33
r 0.490133 2 3 cbr 1000 ------- 0 2.0 3.0 26 26
+ 0.490667 2 3 cbr 1000 ------- 0 2.0 3.0 34 34
- 0.490667 2 3 cbr 1000 ------- 0 2.0 3.0 34 34
r 0.4928 2 3 cbr 1000 ------- 0 2.0 3.0 27 27
+ 0.493333 2 3 cbr 1000 ------- 0 2.0 3.0 35 35
- 0.493333 2 3 cbr 1000 ------- 0 2.0 3.0 35 35
r 0.495467 2 3 cbr 1000 ------- 0 2.0 3.0 28 28
+ 0.496 2 3 cbr 1000 ------- 0 2.0 3.0 36 36
- 0.496 2 3 cbr 1000 ------- 0 2.0 3.0 36 36
r 0.498133 2 3 cbr 1000 ------- 0 2.0 3.0 29 29
+ 0.498667 2 3 cbr 1000 ------- 0 2.0 3.0 37 37
- 0.498667 2 3 cbr 1000 ------- 0 2.0 3.0 37 37
+ 0.5 0 2 tcp 40 ------- 1 0.0 4.0 0 38
- 0.5 0 2 tcp 40 ------- 1 0.0 4.0 0 38
r 0.5008 2 3 cbr 1000 ------- 0 2.0 3.0 30 30
+ 0.501333 2 3 cbr 1000 ------- 0 2.0 3.0 38 39
- 0.501333 2 3 cbr 1000 ------- 0 2.0 3.0 38 39
r 0.503467 2 3 cbr 1000 ------- 0 2.0 3.0 31 31
+ 0.504 2 3 cbr 1000 ------- 0 2.0 3.0 39 40
- 0.504 2 3 cbr 1000 ------- 0 2.0 3.0 39 40
r 0.506133 2 3 cbr 1000 ------- 0 2.0 3.0 32 32
+ 0.506667 2 3 cbr 1000 ------- 0 2.0 3.0 40 41
- 0.506667 2 3 cbr 1000 ------- 0 2.0 3.0 40 41
r 0.5088 2 3 cbr 1000 ------- 0 2.0 3.0 33 33
+ 0.509333 2 3 cbr 1000 ------- 0 2.0 3.0 41 42
- 0.509333 2 3 cbr 1000 ------- 0 2.0 3.0 41 42
r 0.510032 0 2 tcp 40 ------- 1 0.0 4.0 0 38
+ 0.510032 2 3 tcp 40 ------- 1 0.0 4.0 0 38
- 0.510133 2 3 tcp 40 ------- 1 0.0 4.0 0 38
r 0.511467 2 3 cbr 1000 ------- 0 2.0 3.0 34 34
+ 0.512 2 3 cbr 1000 ------- 0 2.0 3.0 42 43
- 0.512 2 3 cbr 1000 ------- 0 2.0 3.0 42 43
r 0.514133 2 3 cbr 1000 ------- 0 2.0 3.0 35 35
+ 0.514667 2 3 cbr 1000 ------- 0 2.0 3.0 43 44
- 0.514667 2 3 cbr 1000 ------- 0 2.0 3.0 43 44
r 0.5168 2 3 cbr 1000 ------- 0 2.0 3.0 36 36
+ 0.517333 2 3 cbr 1000 ------- 0 2.0 3.0 44 45
- 0.517333 2 3 cbr 1000 ------- 0 2.0 3.0 44 45
r 0.519467 2 3 cbr 1000 ------- 0 2.0 3.0 37 37
+ 0.52 2 3 cbr 1000 ------- 0 2.0 3.0 45 46
- 0.52 2 3 cbr 1000 ------- 0 2.0 3.0 45 46
r 0.522133 2 3 cbr 1000 ------- 0 2.0 3.0 38 39
+ 0.522667 2 3 cbr 1000 ------- 0 2.0 3.0 46 47
- 0.522667 2 3 cbr 1000 ------- 0 2.0 3.0 46 47
r 0.5248 2 3 cbr 1000 ------- 0 2.0 3.0 39 40
+ 0.525333 2 3 cbr 1000 ------- 0 2.0 3.0 47 48
- 0.525333 2 3 cbr 1000 ------- 0 2.0 3.0 47 48
r 0.527467 2 3 cbr 1000 ------- 0 2.0 3.0 40 41
+ 0.528 2 3 cbr 1000 ------- 0 2.0 3.0 48 49
- 0.528 2 3 cbr 1000 ------- 0 2.0 3.0 48 49
r 0.530133 2 3 cbr 1000 ------- 0 2.0 3.0 41 42
r 0.530165 2 3 tcp 40 ------- 1 0.0 4.0 0 38
+ 0.530165 3 4 tcp 40 ------- 1 0.0 4.0 0 38
- 0.530165 3 4 tcp 40 ------- 1 0.0 4.0 0 38
+ 0.530667 2 3 cbr 1000 ------- 0 2.0 3.0 49 50
- 0.530667 2 3 cbr 1000 ------- 0 2.0 3.0 49 50
r 0.5328 2 3 cbr 1000 ------- 0 2.0 3.0 42 43
+ 0.533333 2 3 cbr 1000 ------- 0 2.0 3.0 50 51
- 0.533333 2 3 cbr 1000 ------- 0 2.0 3.0 50 51
r 0.535467 2 3 cbr 1000 ------- 0 2.0 3.0 43 44
+ 0.536 2 3 cbr 1000 ------- 0 2.0 3.0 51 52
- 0.536 2 3 cbr 1000 ------- 0 2.0 3.0 51 52
r 0.538133 2 3 cbr 1000 ------- 0 2.0 3.0 44 45
+ 0.538667 2 3 cbr 1000 ------- 0 2.0 3.0 52 53
- 0.538667 2 3 cbr 1000 ------- 0 2.0 3.0 52 53
r 0.540197 3 4 tcp 40 ------- 1 0.0 4.0 0 38
+ 0.540197 4 3 ack 40 ------- 1 4.0 0.0 0 54
- 0.540197 4 3 ack 40 ------- 1 4.0 0.0 0 54
r 0.5408 2 3 cbr 1000 ------- 0 2.0 3.0 45 46
+ 0.541333 2 3 cbr 1000 ------- 0 2.0 3.0 53 55
- 0.541333 2 3 cbr 1000 ------- 0 2.0 3.0 53 55
r 0.543467 2 3 cbr 1000 ------- 0 2.0 3.0 46 47
+ 0.544 2 3 cbr 1000 ------- 0 2.0 3.0 54 56
- 0.544 2 3 cbr 1000 ------- 0 2.0 3.0 54 56
r 0.546133 2 3 cbr 1000 ------- 0 2.0 3.0 47 48
+ 0.546667 2 3 cbr 1000 ------- 0 2.0 3.0 55 57
- 0.546667 2 3 cbr 1000 ------- 0 2.0 3.0 55 57
r 0.5488 2 3 cbr 1000 ------- 0 2.0 3.0 48 49
+ 0.549333 2 3 cbr 1000 ------- 0 2.0 3.0 56 58
- 0.549333 2 3 cbr 1000 ------- 0 2.0 3.0 56 58
r 0.550229 4 3 ack 40 ------- 1 4.0 0.0 0 54
+ 0.550229 3 2 ack 40 ------- 1 4.0 0.0 0 54
- 0.550229 3 2 ack 40 ------- 1 4.0 0.0 0 54
r 0.551467 2 3 cbr 1000 ------- 0 2.0 3.0 49 50
+ 0.552 2 3 cbr 1000 ------- 0 2.0 3.0 57 59
- 0.552 2 3 cbr 1000 ------- 0 2.0 3.0 57 59
r 0.554133 2 3 cbr 1000 ------- 0 2.0 3.0 50 51
+ 0.554667 2 3 cbr 1000 ------- 0 2.0 3.0 58 60
- 0.554667 2 3 cbr 1000 ------- 0 2.0 3.0 58 60
r 0.5568 2 3 cbr 1000 ------- 0 2.0 3.0 51 52
+ 0.557333 2 3 cbr 1000 ------- 0 2.0 3.0 59 61
- 0.557333 2 3 cbr 1000 ------- 0 2.0 3.0 59 61
r 0.559467 2 3 cbr 1000 ------- 0 2.0 3.0 52 53
+ 0.56 2 3 cbr 1000 ------- 0 2.0 3.0 60 62
- 0.56 2 3 cbr 1000 ------- 0 2.0 3.0 60 62
r 0.562133 2 3 cbr 1000 ------- 0 2.0 3.0 53 55
+ 0.562667 2 3 cbr 1000 ------- 0 2.0 3.0 61 63
- 0.562667 2 3 cbr 1000 ------- 0 2.0 3.0 61 63
r 0.5648 2 3 cbr 1000 ------- 0 2.0 3.0 54 56
+ 0.565333 2 3 cbr 1000 ------- 0 2.0 3.0 62 64
- 0.565333 2 3 cbr 1000 ------- 0 2.0 3.0 62 64
r 0.567467 2 3 cbr 1000 ------- 0 2.0 3.0 55 57
+ 0.568 2 3 cbr 1000 ------- 0 2.0 3.0 63 65
- 0.568 2 3 cbr 1000 ------- 0 2.0 3.0 63 65
r 0.570133 2 3 cbr 1000 ------- 0 2.0 3.0 56 58
r 0.570261 3 2 ack 40 ------- 1 4.0 0.0 0 54
+ 0.570261 2 0 ack 40 ------- 1 4.0 0.0 0 54
- 0.570261 2 0 ack 40 ------- 1 4.0 0.0 0 54
+ 0.570667 2 3 cbr 1000 ------- 0 2.0 3.0 64 66
- 0.570667 2 3 cbr 1000 ------- 0 2.0 3.0 64 66
r 0.5728 2 3 cbr 1000 ------- 0 2.0 3.0 57 59
+ 0.573333 2 3 cbr 1000 ------- 0 2.0 3.0 65 67
- 0.573333 2 3 cbr 1000 ------- 0 2.0 3.0 65 67
r 0.575467 2 3 cbr 1000 ------- 0 2.0 3.0 58 60
+ 0.576 2 3 cbr 1000 ------- 0 2.0 3.0 66 68
- 0.576 2 3 cbr 1000 ------- 0 2.0 3.0 66 68
r 0.578133 2 3 cbr 1000 ------- 0 2.0 3.0 59 61
+ 0.578667 2 3 cbr 1000 ------- 0 2.0 3.0 67 69
- 0.578667 2 3 cbr 1000 ------- 0 2.0 3.0 67 69
r 0.580293 2 0 ack 40 ------- 1 4.0 0.0 0 54
+ 0.580293 0 2 tcp 1040 ------- 1 0.0 4.0 1 70
- 0.580293 0 2 tcp 1040 ------- 1 0.0 4.0 1 70
+ 0.580293 0 2 tcp 1040 ------- 1 0.0 4.0 2 71
r 0.5808 2 3 cbr 1000 ------- 0 2.0 3.0 60 62
- 0.581125 0 2 tcp 1040 ------- 1 0.0 4.0 2 71
+ 0.581333 2 3 cbr 1000 ------- 0 2.0 3.0 68 72
- 0.581333 2 3 cbr 1000 ------- 0 2.0 3.0 68 72
r 0.583467 2 3 cbr 1000 ------- 0 2.0 3.0 61 63
+ 0.584 2 3 cbr 1000 ------- 0 2.0 3.0 69 73
- 0.584 2 3 cbr 1000 ------- 0 2.0 3.0 69 73
r 0.586133 2 3 cbr 1000 ------- 0 2.0 3.0 62 64
+ 0.586667 2 3 cbr 1000 ------- 0 2.0 3.0 70 74
- 0.586667 2 3 cbr 1000 ------- 0 2.0 3.0 70 74
r 0.5888 2 3 cbr 1000 ------- 0 2.0 3.0 63 65
+ 0.589333 2 3 cbr 1000 ------- 0 2.0 3.0 71 75
- 0.589333 2 3 cbr 1000 ------- 0 2.0 3.0 71 75
r 0.591125 0 2 tcp 1040 ------- 1 0.0 4.0 1 70
+ 0.591125 2 3 tcp 1040 ------- 1 0.0 4.0 1 70
- 0.591125 2 3 tcp 1040 ------- 1 0.0 4.0 1 70
r 0.591467 2 3 cbr 1000 ------- 0 2.0 3.0 64 66
r 0.591957 0 2 tcp 1040 ------- 1 0.0 4.0 2 71
+ 0.591957 2 3 tcp 1040 ------- 1 0.0 4.0 2 71
- 0.591957 2 3 tcp 1040 ------- 1 0.0 4.0 2 71
+ 0.592 2 3 cbr 1000 ------- 0 2.0 3.0 72 76
- 0.592789 2 3 cbr 1000 ------- 0 2.0 3.0 72 76
r 0.594133 2 3 cbr 1000 ------- 0 2.0 3.0 65 67
+ 0.594667 2 3 cbr 1000 ------- 0 2.0 3.0 73 77
- 0.594667 2 3 cbr 1000 ------- 0 2.0 3.0 73 77
r 0.5968 2 3 cbr 1000 ------- 0 2.0 3.0 66 68
+ 0.597333 2 3 cbr 1000 ------- 0 2.0 3.0 74 78
- 0.597333 2 3 cbr 1000 ------- 0 2.0 3.0 74 78
r 0.599467 2 3 cbr 1000 ------- 0 2.0 3.0 67 69
+ 0.6 2 3 cbr 1000 ------- 0 2.0 3.0 75 79
- 0.6 2 3 cbr 1000 ------- 0 2.0 3.0 75 79
r 0.602133 2 3 cbr 1000 ------- 0 2.0 3.0 68 72
+ 0.602667 2 3 cbr 1000 ------- 0 2.0 3.0 76 80
- 0.602667 2 3 cbr 1000 ------- 0 2.0 3.0 76 80
r 0.6048 2 3 cbr 1000 ------- 0 2.0 3.0 69 73
+ 0.605333 2 3 cbr 1000 ------- 0 2.0 3.0 77 81
- 0.605333 2 3 cbr 1000 ------- 0 2.0 3.0 77 81
r 0.607467 2 3 cbr 1000 ------- 0 2.0 3.0 70 74
+ 0.608 2 3 cbr 1000 ------- 0 2.0 3.0 78 82
- 0.608 2 3 cbr 1000 ------- 0 2.0 3.0 78 82
r 0.610133 2 3 cbr 1000 ------- 0 2.0 3.0 71 75
+ 0.610667 2 3 cbr 1000 ------- 0 2.0 3.0 79 83
- 0.610667 2 3 cbr 1000 ------- 0 2.0 3.0 79 83
r 0.611957 2 3 tcp 1040 ------- 1 0.0 4.0 1 70
+ 0.611957 3 4 tcp 1040 ------- 1 0.0 4.0 1 70
- 0.611957 3 4 tcp 1040 ------- 1 0.0 4.0 1 70
r 0.612789 2 3 tcp 1040 ------- 1 0.0 4.0 2 71
+ 0.612789 3 4 tcp 1040 ------- 1 0.0 4.0 2 71
- 0.612789 3 4 tcp 1040 ------- 1 0.0 4.0 2 71
+ 0.613333 2 3 cbr 1000 ------- 0 2.0 3.0 80 84
- 0.613333 2 3 cbr 1000 ------- 0 2.0 3.0 80 84
r 0.613589 2 3 cbr 1000 ------- 0 2.0 3.0 72 76
r 0.615467 2 3 cbr 1000 ------- 0 2.0 3.0 73 77
+ 0.616 2 3 cbr 1000 ------- 0 2.0 3.0 81 85
- 0.616 2 3 cbr 1000 ------- 0 2.0 3.0 81 85
r 0.618133 2 3 cbr 1000 ------- 0 2.0 3.0 74 78
+ 0.618667 2 3 cbr 1000 ------- 0 2.0 3.0 82 86
- 0.618667 2 3 cbr 1000 ------- 0 2.0 3.0 82 86
r 0.6208 2 3 cbr 1000 ------- 0 2.0 3.0 75 79
+ 0.621333 2 3 cbr 1000 ------- 0 2.0 3.0 83 87
- 0.621333 2 3 cbr 1000 ------- 0 2.0 3.0 83 87
r 0.622789 3 4 tcp 1040 ------- 1 0.0 4.0 1 70
+ 0.622789 4 3 ack 40 ------- 1 4.0 0.0 1 88
- 0.622789 4 3 ack 40 ------- 1 4.0 0.0 1 88
r 0.623467 2 3 cbr 1000 ------- 0 2.0 3.0 76 80
r 0.623621 3 4 tcp 1040 ------- 1 0.0 4.0 2 71
+ 0.623621 4 3 ack 40 ------- 1 4.0 0.0 2 89
- 0.623621 4 3 ack 40 ------- 1 4.0 0.0 2 89
+ 0.624 2 3 cbr 1000 ------- 0 2.0 3.0 84 90
- 0.624 2 3 cbr 1000 ------- 0 2.0 3.0 84 90
r 0.626133 2 3 cbr 1000 ------- 0 2.0 3.0 77 81
+ 0.626667 2 3 cbr 1000 ------- 0 2.0 3.0 85 91
- 0.626667 2 3 cbr 1000 ------- 0 2.0 3.0 85 91
r 0.6288 2 3 cbr 1000 ------- 0 2.0 3.0 78 82
+ 0.629333 2 3 cbr 1000 ------- 0 2.0 3.0 86 92
- 0.629333 2 3 cbr 1000 ------- 0 2.0 3.0 86 92
r 0.631467 2 3 cbr 1000 ------- 0 2.0 3.0 79 83
+ 0.632 2 3 cbr 1000 ------- 0 2.0 3.0 87 93
- 0.632 2 3 cbr 1000 ------- 0 2.0 3.0 87 93
r 0.632821 4 3 ack 40 ------- 1 4.0 0.0 1 88
+ 0.632821 3 2 ack 40 ------- 1 4.0 0.0 1 88
- 0.632821 3 2 ack 40 ------- 1 4.0 0.0 1 88
r 0.633653 4 3 ack 40 ------- 1 4.0 0.0 2 89
+ 0.633653 3 2 ack 40 ------- 1 4.0 0.0 2 89
- 0.633653 3 2 ack 40 ------- 1 4.0 0.0 2 89
r 0.634133 2 3 cbr 1000 ------- 0 2.0 3.0 80 84
+ 0.634667 2 3 cbr 1000 ------- 0 2.0 3.0 88 94
- 0.634667 2 3 cbr 1000 ------- 0 2.0 3.0 88 94
r 0.6368 2 3 cbr 1000 ------- 0 2.0 3.0 81 85
+ 0.637333 2 3 cbr 1000 ------- 0 2.0 3.0 89 95
- 0.637333 2 3 cbr 1000 ------- 0 2.0 3.0 89 95
r 0.639467 2 3 cbr 1000 ------- 0 2.0 3.0 82 86
+ 0.64 2 3 cbr 1000 ------- 0 2.0 3.0 90 96
- 0.64 2 3 cbr 1000 ------- 0 2.0 3.0 90 96
r 0.642133 2 3 cbr 1000 ------- 0 2.0 3.0 83 87
+ 0.642667 2 3 cbr 1000 ------- 0 2.0 3.0 91 97
- 0.642667 2 3 cbr 1000 ------- 0 2.0 3.0 91 97
r 0.6448 2 3 cbr 1000 ------- 0 2.0 3.0 84 90
+ 0.645333 2 3 cbr 1000 ------- 0 2.0 3.0 92 98
- 0.645333 2 3 cbr 1000 ------- 0 2.0 3.0 92 98
r 0.647467 2 3 cbr 1000 ------- 0 2.0 3.0 85 91
+ 0.648 2 3 cbr 1000 ------- 0 2.0 3.0 93 99
- 0.648 2 3 cbr 1000 ------- 0 2.0 3.0 93 99
r 0.650133 2 3 cbr 1000 ------- 0 2.0 3.0 86 92
+ 0.650667 2 3 cbr 1000 ------- 0 2.0 3.0 94 100
- 0.650667 2 3 cbr 1000 ------- 0 2.0 3.0 94 100
r 0.6528 2 3 cbr 1000 ------- 0 2.0 3.0 87 93
r 0.652853 3 2 ack 40 ------- 1 4.0 0.0 1 88
+ 0.652853 2 0 ack 40 ------- 1 4.0 0.0 1 88
- 0.652853 2 0 ack 40 ------- 1 4.0 0.0 1 88
+ 0.653333 2 3 cbr 1000 ------- 0 2.0 3.0 95 101
- 0.653333 2 3 cbr 1000 ------- 0 2.0 3.0 95 101
r 0.653685 3 2 ack 40 ------- 1 4.0 0.0 2 89
+ 0.653685 2 0 ack 40 ------- 1 4.0 0.0 2 89
- 0.653685 2 0 ack 40 ------- 1 4.0 0.0 2 89
r 0.655467 2 3 cbr 1000 ------- 0 2.0 3.0 88 94
+ 0.656 2 3 cbr 1000 ------- 0 2.0 3.0 96 102
- 0.656 2 3 cbr 1000 ------- 0 2.0 3.0 96 102
r 0.658133 2 3 cbr 1000 ------- 0 2.0 3.0 89 95
+ 0.658667 2 3 cbr 1000 ------- 0 2.0 3.0 97 103
- 0.658667 2 3 cbr 1000 ------- 0 2.0 3.0 97 103
r 0.6608 2 3 cbr 1000 ------- 0 2.0 3.0 90 96
+ 0.661333 2 3 cbr 1000 ------- 0 2.0 3.0 98 104
- 0.661333 2 3 cbr 1000 ------- 0 2.0 3.0 98 104
r 0.662885 2 0 ack 40 ------- 1 4.0 0.0 1 88
+ 0.662885 0 2 tcp 1040 ------- 1 0.0 4.0 3 105
- 0.662885 0 2 tcp 1040 ------- 1 0.0 4.0 3 105
+ 0.662885 0 2 tcp 1040 ------- 1 0.0 4.0 4 106
r 0.663467 2 3 cbr 1000 ------- 0 2.0 3.0 91 97
r 0.663717 2 0 ack 40 ------- 1 4.0 0.0 2 89
+ 0.663717 0 2 tcp 1040 ------- 1 0.0 4.0 5 107
+ 0.663717 0 2 tcp 1040 ------- 1 0.0 4.0 6 108
- 0.663717 0 2 tcp 1040 ------- 1 0.0 4.0 4 106
+ 0.664 2 3 cbr 1000 ------- 0 2.0 3.0 99 109
- 0.664 2 3 cbr 1000 ------- 0 2.0 3.0 99 109
- 0.664549 0 2 tcp 1040 ------- 1 0.0 4.0 5 107
- 0.665381 0 2 tcp 1040 ------- 1 0.0 4.0 6 108
r 0.666133 2 3 cbr 1000 ------- 0 2.0 3.0 92 98
+ 0.666667 2 3 cbr 1000 ------- 0 2.0 3.0 100 110
- 0.666667 2 3 cbr 1000 ------- 0 2.0 3.0 100 110
r 0.6688 2 3 cbr 1000 ------- 0 2.0 3.0 93 99
+ 0.669333 2 3 cbr 1000 ------- 0 2.0 3.0 101 111
- 0.669333 2 3 cbr 1000 ------- 0 2.0 3.0 101 111
r 0.671467 2 3 cbr 1000 ------- 0 2.0 3.0 94 100
+ 0.672 2 3 cbr 1000 ------- 0 2.0 3.0 102 112
- 0.672 2 3 cbr 1000 ------- 0 2.0 3.0 102 112
r 0.673717 0 2 tcp 1040 ------- 1 0.0 4.0 3 105
+ 0.673717 2 3 tcp 1040 ------- 1 0.0 4.0 3 105
- 0.673717 2 3 tcp 1040 ------- 1 0.0 4.0 3 105
r 0.674133 2 3 cbr 1000 ------- 0 2.0 3.0 95 101
r 0.674549 0 2 tcp 1040 ------- 1 0.0 4.0 4 106
+ 0.674549 2 3 tcp 1040 ------- 1 0.0 4.0 4 106
- 0.674549 2 3 tcp 1040 ------- 1 0.0 4.0 4 106
+ 0.674667 2 3 cbr 1000 ------- 0 2.0 3.0 103 113
r 0.675381 0 2 tcp 1040 ------- 1 0.0 4.0 5 107
+ 0.675381 2 3 tcp 1040 ------- 1 0.0 4.0 5 107
- 0.675381 2 3 cbr 1000 ------- 0 2.0 3.0 103 113
- 0.676181 2 3 tcp 1040 ------- 1 0.0 4.0 5 107
r 0.676213 0 2 tcp 1040 ------- 1 0.0 4.0 6 108
+ 0.676213 2 3 tcp 1040 ------- 1 0.0 4.0 6 108
r 0.6768 2 3 cbr 1000 ------- 0 2.0 3.0 96 102
- 0.677013 2 3 tcp 1040 ------- 1 0.0 4.0 6 108
+ 0.677333 2 3 cbr 1000 ------- 0 2.0 3.0 104 114
- 0.677845 2 3 cbr 1000 ------- 0 2.0 3.0 104 114
r 0.679467 2 3 cbr 1000 ------- 0 2.0 3.0 97 103
+ 0.68 2 3 cbr 1000 ------- 0 2.0 3.0 105 115
- 0.68 2 3 cbr 1000 ------- 0 2.0 3.0 105 115
r 0.682133 2 3 cbr 1000 ------- 0 2.0 3.0 98 104
+ 0.682667 2 3 cbr 1000 ------- 0 2.0 3.0 106 116
- 0.682667 2 3 cbr 1000 ------- 0 2.0 3.0 106 116
r 0.6848 2 3 cbr 1000 ------- 0 2.0 3.0 99 109
+ 0.685333 2 3 cbr 1000 ------- 0 2.0 3.0 107 117
- 0.685333 2 3 cbr 1000 ------- 0 2.0 3.0 107 117
r 0.687467 2 3 cbr 1000 ------- 0 2.0 3.0 100 110
+ 0.688 2 3 cbr 1000 ------- 0 2.0 3.0 108 118
- 0.688 2 3 cbr 1000 ------- 0 2.0 3.0 108 118
r 0.690133 2 3 cbr 1000 ------- 0 2.0 3.0 101 111
+ 0.690667 2 3 cbr 1000 ------- 0 2.0 3.0 109 119
- 0.690667 2 3 cbr 1000 ------- 0 2.0 3.0 109 119
r 0.6928 2 3 cbr 1000 ------- 0 2.0 3.0 102 112
+ 0.693333 2 3 cbr 1000 ------- 0 2.0 3.0 110 120
- 0.693333 2 3 cbr 1000 ------- 0 2.0 3.0 110 120
r 0.694549 2 3 tcp 1040 ------- 1 0.0 4.0 3 105
+ 0.694549 3 4 tcp 1040 ------- 1 0.0 4.0 3 105
- 0.694549 3 4 tcp 1040 ------- 1 0.0 4.0 3 105
r 0.695381 2 3 tcp 1040 ------- 1 0.0 4.0 4 106
+ 0.695381 3 4 tcp 1040 ------- 1 0.0 4.0 4 106
- 0.695381 3 4 tcp 1040 ------- 1 0.0 4.0 4 106
+ 0.696 2 3 cbr 1000 ------- 0 2.0 3.0 111 121
- 0.696 2 3 cbr 1000 ------- 0 2.0 3.0 111 121
r 0.696181 2 3 cbr 1000 ------- 0 2.0 3.0 103 113
r 0.697013 2 3 tcp 1040 ------- 1 0.0 4.0 5 107
+ 0.697013 3 4 tcp 1040 ------- 1 0.0 4.0 5 107
- 0.697013 3 4 tcp 1040 ------- 1 0.0 4.0 5 107
r 0.697845 2 3 tcp 1040 ------- 1 0.0 4.0 6 108
+ 0.697845 3 4 tcp 1040 ------- 1 0.0 4.0 6 108
- 0.697845 3 4 tcp 1040 ------- 1 0.0 4.0 6 108
r 0.698645 2 3 cbr 1000 ------- 0 2.0 3.0 104 114
+ 0.698667 2 3 cbr 1000 ------- 0 2.0 3.0 112 122
- 0.698667 2 3 cbr 1000 ------- 0 2.0 3.0 112 122
r 0.7008 2 3 cbr 1000 ------- 0 2.0 3.0 105 115
+ 0.701333 2 3 cbr 1000 ------- 0 2.0 3.0 113 123
- 0.701333 2 3 cbr 1000 ------- 0 2.0 3.0 113 123
r 0.703467 2 3 cbr 1000 ------- 0 2.0 3.0 106 116
+ 0.704 2 3 cbr 1000 ------- 0 2.0 3.0 114 124
- 0.704 2 3 cbr 1000 ------- 0 2.0 3.0 114 124
r 0.705381 3 4 tcp 1040 ------- 1 0.0 4.0 3 105
+ 0.705381 4 3 ack 40 ------- 1 4.0 0.0 3 125
- 0.705381 4 3 ack 40 ------- 1 4.0 0.0 3 125
r 0.706133 2 3 cbr 1000 ------- 0 2.0 3.0 107 117
r 0.706213 3 4 tcp 1040 ------- 1 0.0 4.0 4 106
+ 0.706213 4 3 ack 40 ------- 1 4.0 0.0 4 126
- 0.706213 4 3 ack 40 ------- 1 4.0 0.0 4 126
+ 0.706667 2 3 cbr 1000 ------- 0 2.0 3.0 115 127
- 0.706667 2 3 cbr 1000 ------- 0 2.0 3.0 115 127
r 0.707845 3 4 tcp 1040 ------- 1 0.0 4.0 5 107
+ 0.707845 4 3 ack 40 ------- 1 4.0 0.0 5 128
- 0.707845 4 3 ack 40 ------- 1 4.0 0.0 5 128
r 0.708677 3 4 tcp 1040 ------- 1 0.0 4.0 6 108
+ 0.708677 4 3 ack 40 ------- 1 4.0 0.0 6 129
- 0.708677 4 3 ack 40 ------- 1 4.0 0.0 6 129
r 0.7088 2 3 cbr 1000 ------- 0 2.0 3.0 108 118
+ 0.709333 2 3 cbr 1000 ------- 0 2.0 3.0 116 130
- 0.709333 2 3 cbr 1000 ------- 0 2.0 3.0 116 130
r 0.711467 2 3 cbr 1000 ------- 0 2.0 3.0 109 119
+ 0.712 2 3 cbr 1000 ------- 0 2.0 3.0 117 131
- 0.712 2 3 cbr 1000 ------- 0 2.0 3.0 117 131
r 0.714133 2 3 cbr 1000 ------- 0 2.0 3.0 110 120
+ 0.714667 2 3 cbr 1000 ------- 0 2.0 3.0 118 132
- 0.714667 2 3 cbr 1000 ------- 0 2.0 3.0 118 132
r 0.715413 4 3 ack 40 ------- 1 4.0 0.0 3 125
+ 0.715413 3 2 ack 40 ------- 1 4.0 0.0 3 125
- 0.715413 3 2 ack 40 ------- 1 4.0 0.0 3 125
r 0.716245 4 3 ack 40 ------- 1 4.0 0.0 4 126
+ 0.716245 3 2 ack 40 ------- 1 4.0 0.0 4 126
- 0.716245 3 2 ack 40 ------- 1 4.0 0.0 4 126
r 0.7168 2 3 cbr 1000 ------- 0 2.0 3.0 111 121
+ 0.717333 2 3 cbr 1000 ------- 0 2.0 3.0 119 133
- 0.717333 2 3 cbr 1000 ------- 0 2.0 3.0 119 133
r 0.717877 4 3 ack 40 ------- 1 4.0 0.0 5 128
+ 0.717877 3 2 ack 40 ------- 1 4.0 0.0 5 128
- 0.717877 3 2 ack 40 ------- 1 4.0 0.0 5 128
r 0.718709 4 3 ack 40 ------- 1 4.0 0.0 6 129
+ 0.718709 3 2 ack 40 ------- 1 4.0 0.0 6 129
- 0.718709 3 2 ack 40 ------- 1 4.0 0.0 6 129
r 0.719467 2 3 cbr 1000 ------- 0 2.0 3.0 112 122
+ 0.72 2 3 cbr 1000 ------- 0 2.0 3.0 120 134
- 0.72 2 3 cbr 1000 ------- 0 2.0 3.0 120 134
r 0.722133 2 3 cbr 1000 ------- 0 2.0 3.0 113 123
+ 0.722667 2 3 cbr 1000 ------- 0 2.0 3.0 121 135
- 0.722667 2 3 cbr 1000 ------- 0 2.0 3.0 121 135
r 0.7248 2 3 cbr 1000 ------- 0 2.0 3.0 114 124
+ 0.725333 2 3 cbr 1000 ------- 0 2.0 3.0 122 136
- 0.725333 2 3 cbr 1000 ------- 0 2.0 3.0 122 136
r 0.727467 2 3 cbr 1000 ------- 0 2.0 3.0 115 127
+ 0.728 2 3 cbr 1000 ------- 0 2.0 3.0 123 137
- 0.728 2 3 cbr 1000 ------- 0 2.0 3.0 123 137
r 0.730133 2 3 cbr 1000 ------- 0 2.0 3.0 116 130
+ 0.730667 2 3 cbr 1000 ------- 0 2.0 3.0 124 138
- 0.730667 2 3 cbr 1000 ------- 0 2.0 3.0 124 138
r 0.7328 2 3 cbr 1000 ------- 0 2.0 3.0 117 131
+ 0.733333 2 3 cbr 1000 ------- 0 2.0 3.0 125 139
- 0.733333 2 3 cbr 1000 ------- 0 2.0 3.0 125 139
r 0.735445 3 2 ack 40 ------- 1 4.0 0.0 3 125
+ 0.735445 2 0 ack 40 ------- 1 4.0 0.0 3 125
- 0.735445 2 0 ack 40 ------- 1 4.0 0.0 3 125
r 0.735467 2 3 cbr 1000 ------- 0 2.0 3.0 118 132
+ 0.736 2 3 cbr 1000 ------- 0 2.0 3.0 126 140
- 0.736 2 3 cbr 1000 ------- 0 2.0 3.0 126 140
r 0.736277 3 2 ack 40 ------- 1 4.0 0.0 4 126
+ 0.736277 2 0 ack 40 ------- 1 4.0 0.0 4 126
- 0.736277 2 0 ack 40 ------- 1 4.0 0.0 4 126
r 0.737909 3 2 ack 40 ------- 1 4.0 0.0 5 128
+ 0.737909 2 0 ack 40 ------- 1 4.0 0.0 5 128
- 0.737909 2 0 ack 40 ------- 1 4.0 0.0 5 128
r 0.738133 2 3 cbr 1000 ------- 0 2.0 3.0 119 133
+ 0.738667 2 3 cbr 1000 ------- 0 2.0 3.0 127 141
- 0.738667 2 3 cbr 1000 ------- 0 2.0 3.0 127 141
r 0.738741 3 2 ack 40 ------- 1 4.0 0.0 6 129
+ 0.738741 2 0 ack 40 ------- 1 4.0 0.0 6 129
- 0.738741 2 0 ack 40 ------- 1 4.0 0.0 6 129
r 0.7408 2 3 cbr 1000 ------- 0 2.0 3.0 120 134
+ 0.741333 2 3 cbr 1000 ------- 0 2.0 3.0 128 142
- 0.741333 2 3 cbr 1000 ------- 0 2.0 3.0 128 142
r 0.743467 2 3 cbr 1000 ------- 0 2.0 3.0 121 135
+ 0.744 2 3 cbr 1000 ------- 0 2.0 3.0 129 143
- 0.744 2 3 cbr 1000 ------- 0 2.0 3.0 129 143
r 0.745477 2 0 ack 40 ------- 1 4.0 0.0 3 125
+ 0.745477 0 2 tcp 1040 ------- 1 0.0 4.0 7 144
- 0.745477 0 2 tcp 1040 ------- 1 0.0 4.0 7 144
+ 0.745477 0 2 tcp 1040 ------- 1 0.0 4.0 8 145
r 0.746133 2 3 cbr 1000 ------- 0 2.0 3.0 122 136
r 0.746309 2 0 ack 40 ------- 1 4.0 0.0 4 126
+ 0.746309 0 2 tcp 1040 ------- 1 0.0 4.0 9 146
+ 0.746309 0 2 tcp 1040 ------- 1 0.0 4.0 10 147
- 0.746309 0 2 tcp 1040 ------- 1 0.0 4.0 8 145
+ 0.746667 2 3 cbr 1000 ------- 0 2.0 3.0 130 148
- 0.746667 2 3 cbr 1000 ------- 0 2.0 3.0 130 148
- 0.747141 0 2 tcp 1040 ------- 1 0.0 4.0 9 146
r 0.747941 2 0 ack 40 ------- 1 4.0 0.0 5 128
+ 0.747941 0 2 tcp 1040 ------- 1 0.0 4.0 11 149
+ 0.747941 0 2 tcp 1040 ------- 1 0.0 4.0 12 150
- 0.747973 0 2 tcp 1040 ------- 1 0.0 4.0 10 147
r 0.748773 2 0 ack 40 ------- 1 4.0 0.0 6 129
+ 0.748773 0 2 tcp 1040 ------- 1 0.0 4.0 13 151
+ 0.748773 0 2 tcp 1040 ------- 1 0.0 4.0 14 152
r 0.7488 2 3 cbr 1000 ------- 0 2.0 3.0 123 137
- 0.748805 0 2 tcp 1040 ------- 1 0.0 4.0 11 149
+ 0.749333 2 3 cbr 1000 ------- 0 2.0 3.0 131 153
- 0.749333 2 3 cbr 1000 ------- 0 2.0 3.0 131 153
- 0.749637 0 2 tcp 1040 ------- 1 0.0 4.0 12 150
- 0.750469 0 2 tcp 1040 ------- 1 0.0 4.0 13 151
- 0.751301 0 2 tcp 1040 ------- 1 0.0 4.0 14 152
r 0.751467 2 3 cbr 1000 ------- 0 2.0 3.0 124 138
+ 0.752 2 3 cbr 1000 ------- 0 2.0 3.0 132 154
- 0.752 2 3 cbr 1000 ------- 0 2.0 3.0 132 154
r 0.754133 2 3 cbr 1000 ------- 0 2.0 3.0 125 139
+ 0.754667 2 3 cbr 1000 ------- 0 2.0 3.0 133 155
- 0.754667 2 3 cbr 1000 ------- 0 2.0 3.0 133 155
r 0.756309 0 2 tcp 1040 ------- 1 0.0 4.0 7 144
+ 0.756309 2 3 tcp 1040 ------- 1 0.0 4.0 7 144
- 0.756309 2 3 tcp 1040 ------- 1 0.0 4.0 7 144
r 0.7568 2 3 cbr 1000 ------- 0 2.0 3.0 126 140
r 0.757141 0 2 tcp 1040 ------- 1 0.0 4.0 8 145
+ 0.757141 2 3 tcp 1040 ------- 1 0.0 4.0 8 145
- 0.757141 2 3 tcp 1040 ------- 1 0.0 4.0 8 145
+ 0.757333 2 3 cbr 1000 ------- 0 2.0 3.0 134 156
r 0.757973 0 2 tcp 1040 ------- 1 0.0 4.0 9 146
+ 0.757973 2 3 tcp 1040 ------- 1 0.0 4.0 9 146
- 0.757973 2 3 cbr 1000 ------- 0 2.0 3.0 134 156
- 0.758773 2 3 tcp 1040 ------- 1 0.0 4.0 9 146
r 0.758805 0 2 tcp 1040 ------- 1 0.0 4.0 10 147
+ 0.758805 2 3 tcp 1040 ------- 1 0.0 4.0 10 147
r 0.759467 2 3 cbr 1000 ------- 0 2.0 3.0 127 141
- 0.759605 2 3 tcp 1040 ------- 1 0.0 4.0 10 147
r 0.759637 0 2 tcp 1040 ------- 1 0.0 4.0 11 149
+ 0.759637 2 3 tcp 1040 ------- 1 0.0 4.0 11 149
+ 0.76 2 3 cbr 1000 ------- 0 2.0 3.0 135 157
- 0.760437 2 3 tcp 1040 ------- 1 0.0 4.0 11 149
r 0.760469 0 2 tcp 1040 ------- 1 0.0 4.0 12 150
+ 0.760469 2 3 tcp 1040 ------- 1 0.0 4.0 12 150
- 0.761269 2 3 cbr 1000 ------- 0 2.0 3.0 135 157
r 0.761301 0 2 tcp 1040 ------- 1 0.0 4.0 13 151
+ 0.761301 2 3 tcp 1040 ------- 1 0.0 4.0 13 151
- 0.762069 2 3 tcp 1040 ------- 1 0.0 4.0 12 150
r 0.762133 0 2 tcp 1040 ------- 1 0.0 4.0 14 152
+ 0.762133 2 3 tcp 1040 ------- 1 0.0 4.0 14 152
r 0.762133 2 3 cbr 1000 ------- 0 2.0 3.0 128 142
+ 0.762667 2 3 cbr 1000 ------- 0 2.0 3.0 136 158
- 0.762901 2 3 tcp 1040 ------- 1 0.0 4.0 13 151
- 0.763733 2 3 tcp 1040 ------- 1 0.0 4.0 14 152
- 0.764565 2 3 cbr 1000 ------- 0 2.0 3.0 136 158
r 0.7648 2 3 cbr 1000 ------- 0 2.0 3.0 129 143
+ 0.765333 2 3 cbr 1000 ------- 0 2.0 3.0 137 159
- 0.765365 2 3 cbr 1000 ------- 0 2.0 3.0 137 159
r 0.767467 2 3 cbr 1000 ------- 0 2.0 3.0 130 148
+ 0.768 2 3 cbr 1000 ------- 0 2.0 3.0 138 160
- 0.768 2 3 cbr 1000 ------- 0 2.0 3.0 138 160
r 0.770133 2 3 cbr 1000 ------- 0 2.0 3.0 131 153
+ 0.770667 2 3 cbr 1000 ------- 0 2.0 3.0 139 161
- 0.770667 2 3 cbr 1000 ------- 0 2.0 3.0 139 161
r 0.7728 2 3 cbr 1000 ------- 0 2.0 3.0 132 154
+ 0.773333 2 3 cbr 1000 ------- 0 2.0 3.0 140 162
- 0.773333 2 3 cbr 1000 ------- 0 2.0 3.0 140 162
r 0.775467 2 3 cbr 1000 ------- 0 2.0 3.0 133 155
+ 0.776 2 3 cbr 1000 ------- 0 2.0 3.0 141 163
- 0.776 2 3 cbr 1000 ------- 0 2.0 3.0 141 163
r 0.777141 2 3 tcp 1040 ------- 1 0.0 4.0 7 144
+ 0.777141 3 4 tcp 1040 ------- 1 0.0 4.0 7 144
- 0.777141 3 4 tcp 1040 ------- 1 0.0 4.0 7 144
r 0.777973 2 3 tcp 1040 ------- 1 0.0 4.0 8 145
+ 0.777973 3 4 tcp 1040 ------- 1 0.0 4.0 8 145
- 0.777973 3 4 tcp 1040 ------- 1 0.0 4.0 8 145
+ 0.778667 2 3 cbr 1000 ------- 0 2.0 3.0 142 164
- 0.778667 2 3 cbr 1000 ------- 0 2.0 3.0 142 164
r 0.778773 2 3 cbr 1000 ------- 0 2.0 3.0 134 156
r 0.779605 2 3 tcp 1040 ------- 1 0.0 4.0 9 146
+ 0.779605 3 4 tcp 1040 ------- 1 0.0 4.0 9 146
- 0.779605 3 4 tcp 1040 ------- 1 0.0 4.0 9 146
r 0.780437 2 3 tcp 1040 ------- 1 0.0 4.0 10 147
+ 0.780437 3 4 tcp 1040 ------- 1 0.0 4.0 10 147
- 0.780437 3 4 tcp 1040 ------- 1 0.0 4.0 10 147
r 0.781269 2 3 tcp 1040 ------- 1 0.0 4.0 11 149
+ 0.781269 3 4 tcp 1040 ------- 1 0.0 4.0 11 149
- 0.781269 3 4 tcp 1040 ------- 1 0.0 4.0 11 149
+ 0.781333 2 3 cbr 1000 ------- 0 2.0 3.0 143 165
- 0.781333 2 3 cbr 1000 ------- 0 2.0 3.0 143 165
r 0.782069 2 3 cbr 1000 ------- 0 2.0 3.0 135 157
r 0.782901 2 3 tcp 1040 ------- 1 0.0 4.0 12 150
+ 0.782901 3 4 tcp 1040 ------- 1 0.0 4.0 12 150
- 0.782901 3 4 tcp 1040 ------- 1 0.0 4.0 12 150
r 0.783733 2 3 tcp 1040 ------- 1 0.0 4.0 13 151
+ 0.783733 3 4 tcp 1040 ------- 1 0.0 4.0 13 151
- 0.783733 3 4 tcp 1040 ------- 1 0.0 4.0 13 151
+ 0.784 2 3 cbr 1000 ------- 0 2.0 3.0 144 166
- 0.784 2 3 cbr 1000 ------- 0 2.0 3.0 144 166
r 0.784565 2 3 tcp 1040 ------- 1 0.0 4.0 14 152
+ 0.784565 3 4 tcp 1040 ------- 1 0.0 4.0 14 152
- 0.784565 3 4 tcp 1040 ------- 1 0.0 4.0 14 152
r 0.785365 2 3 cbr 1000 ------- 0 2.0 3.0 136 158
r 0.786165 2 3 cbr 1000 ------- 0 2.0 3.0 137 159
+ 0.786667 2 3 cbr 1000 ------- 0 2.0 3.0 145 167
- 0.786667 2 3 cbr 1000 ------- 0 2.0 3.0 145 167
r 0.787973 3 4 tcp 1040 ------- 1 0.0 4.0 7 144
+ 0.787973 4 3 ack 40 ------- 1 4.0 0.0 7 168
- 0.787973 4 3 ack 40 ------- 1 4.0 0.0 7 168
r 0.7888 2 3 cbr 1000 ------- 0 2.0 3.0 138 160
r 0.788805 3 4 tcp 1040 ------- 1 0.0 4.0 8 145
+ 0.788805 4 3 ack 40 ------- 1 4.0 0.0 8 169
- 0.788805 4 3 ack 40 ------- 1 4.0 0.0 8 169
+ 0.789333 2 3 cbr 1000 ------- 0 2.0 3.0 146 170
- 0.789333 2 3 cbr 1000 ------- 0 2.0 3.0 146 170
r 0.790437 3 4 tcp 1040 ------- 1 0.0 4.0 9 146
+ 0.790437 4 3 ack 40 ------- 1 4.0 0.0 9 171
- 0.790437 4 3 ack 40 ------- 1 4.0 0.0 9 171