+ 0.5 2 3 cbr 1000 ------- 0 2.0 3.0 0 0
- 0.5 2 3 cbr 1000 ------- 0 2.0 3.0 0 0
+ 0.504 2 3 cbr 1000 ------- 0 2.0 3.0 1 1
- 0.504 2 3 cbr 1000 ------- 0 2.0 3.0 1 1
+ 0.508 2 3 cbr 1000 ------- 0 2.0 3.0 2 2
- 0.508 2 3 cbr 1000 ------- 0 2.0 3.0 2 2
+ 0.512 2 3 cbr 1000 ------- 0 2.0 3.0 3 3
- 0.512 2 3 cbr 1000 ------- 0 2.0 3.0 3 3
+ 0.516 2 3 cbr 1000 ------- 0 2.0 3.0 4 4
- 0.516 2 3 cbr 1000 ------- 0 2.0 3.0 4 4
+ 0.52 2 3 cbr 1000 ------- 0 2.0 3.0 5 5
- 0.52 2 3 cbr 1000 ------- 0 2.0 3.0 5 5
r 0.5208 2 3 cbr 1000 ------- 0 2.0 3.0 0 0
+ 0.524 2 3 cbr 1000 ------- 0 2.0 3.0 6 6
- 0.524 2 3 cbr 1000 ------- 0 2.0 3.0 6 6
r 0.5248 2 3 cbr 1000 ------- 0 2.0 3.0 1 1
+ 0.528 2 3 cbr 1000 ------- 0 2.0 3.0 7 7
- 0.528 2 3 cbr 1000 ------- 0 2.0 3.0 7 7
r 0.5288 2 3 cbr 1000 ------- 0 2.0 3.0 2 2
+ 0.532 2 3 cbr 1000 ------- 0 2.0 3.0 8 8
- 0.532 2 3 cbr 1000 ------- 0 2.0 3.0 8 8
r 0.5328 2 3 cbr 1000 ------- 0 2.0 3.0 3 3
+ 0.536 2 3 cbr 1000 ------- 0 2.0 3.0 9 9
- 0.536 2 3 cbr 1000 ------- 0 2.0 3.0 9 9
r 0.5368 2 3 cbr 1000 ------- 0 2.0 3.0 4 4
+ 0.54 2 3 cbr 1000 ------- 0 2.0 3.0 10 10
- 0.54 2 3 cbr 1000 ------- 0 2.0 3.0 10 10
r 0.5408 2 3 cbr 1000 ------- 0 2.0 3.0 5 5
+ 0.544 2 3 cbr 1000 ------- 0 2.0 3.0 11 11
- 0.544 2 3 cbr 1000 ------- 0 2.0 3.0 11 11
r 0.5448 2 3 cbr 1000 ------- 0 2.0 3.0 6 6
+ 0.548 2 3 cbr 1000 ------- 0 2.0 3.0 12 12
- 0.548 2 3 cbr 1000 ------- 0 2.0 3.0 12 12
r 0.5488 2 3 cbr 1000 ------- 0 2.0 3.0 7 7
+ 0.552 2 3 cbr 1000 ------- 0 2.0 3.0 13 13
- 0.552 2 3 cbr 1000 ------- 0 2.0 3.0 13 13
r 0.5528 2 3 cbr 1000 ------- 0 2.0 3.0 8 8
+ 0.556 2 3 cbr 1000 ------- 0 2.0 3.0 14 14
- 0.556 2 3 cbr 1000 ------- 0 2.0 3.0 14 14
r 0.5568 2 3 cbr 1000 ------- 0 2.0 3.0 9 9
+ 0.56 2 3 cbr 1000 ------- 0 2.0 3.0 15 15
- 0.56 2 3 cbr 1000 ------- 0 2.0 3.0 15 15
r 0.5608 2 3 cbr 1000 ------- 0 2.0 3.0 10 10
+ 0.564 2 3 cbr 1000 ------- 0 2.0 3.0 16 16
- 0.564 2 3 cbr 1000 ------- 0 2.0 3.0 16 16
r 0.5648 2 3 cbr 1000 ------- 0 2.0 3.0 11 11
+ 0.568 2 3 cbr 1000 ------- 0 2.0 3.0 17 17
- 0.568 2 3 cbr 1000 ------- 0 2.0 3.0 17 17
r 0.5688 2 3 cbr 1000 ------- 0 2.0 3.0 12 12
+ 0.572 2 3 cbr 1000 ------- 0 2.0 3.0 18 18
- 0.572 2 3 cbr 1000 ------- 0 2.0 3.0 18 18
r 0.5728 2 3 cbr 1000 ------- 0 2.0 3.0 13 13
+ 0.576 2 3 cbr 1000 ------- 0 2.0 3.0 19 19
- 0.576 2 3 cbr 1000 ------- 0 2.0 3.0 19 19
r 0.5768 2 3 cbr 1000 ------- 0 2.0 3.0 14 14
+ 0.58 2 3 cbr 1000 ------- 0 2.0 3.0 20 20
- 0.58 2 3 cbr 1000 ------- 0 2.0 3.0 20 20
r 0.5808 2 3 cbr 1000 ------- 0 2.0 3.0 15 15
+ 0.584 2 3 cbr 1000 ------- 0 2.0 3.0 21 21
- 0.584 2 3 cbr 1000 ------- 0 2.0 3.0 21 21
r 0.5848 2 3 cbr 1000 ------- 0 2.0 3.0 16 16
+ 0.588 2 3 cbr 1000 ------- 0 2.0 3.0 22 22
- 0.588 2 3 cbr 1000 ------- 0 2.0 3.0 22 22
r 0.5888 2 3 cbr 1000 ------- 0 2.0 3.0 17 17
+ 0.592 2 3 cbr 1000 ------- 0 2.0 3.0 23 23
- 0.592 2 3 cbr 1000 ------- 0 2.0 3.0 23 23
r 0.5928 2 3 cbr 1000 ------- 0 2.0 3.0 18 18
+ 0.596 2 3 cbr 1000 ------- 0 2.0 3.0 24 24
- 0.596 2 3 cbr 1000 ------- 0 2.0 3.0 24 24
r 0.5968 2 3 cbr 1000 ------- 0 2.0 3.0 19 19
+ 0.6 0 2 tcp 1000 ------- 1 0.0 4.0 0 25
- 0.6 0 2 tcp 1000 ------- 1 0.0 4.0 0 25
+ 0.6 2 3 cbr 1000 ------- 0 2.0 3.0 25 26
- 0.6 2 3 cbr 1000 ------- 0 2.0 3.0 25 26
r 0.6008 2 3 cbr 1000 ------- 0 2.0 3.0 20 20
+ 0.604 2 3 cbr 1000 ------- 0 2.0 3.0 26 27
- 0.604 2 3 cbr 1000 ------- 0 2.0 3.0 26 27
r 0.6048 2 3 cbr 1000 ------- 0 2.0 3.0 21 21
+ 0.608 2 3 cbr 1000 ------- 0 2.0 3.0 27 28
- 0.608 2 3 cbr 1000 ------- 0 2.0 3.0 27 28
r 0.6088 2 3 cbr 1000 ------- 0 2.0 3.0 22 22
r 0.6108 0 2 tcp 1000 ------- 1 0.0 4.0 0 25
+ 0.6108 2 3 tcp 1000 ------- 1 0.0 4.0 0 25
- 0.6108 2 3 tcp 1000 ------- 1 0.0 4.0 0 25
+ 0.612 2 3 cbr 1000 ------- 0 2.0 3.0 28 29
- 0.612 2 3 cbr 1000 ------- 0 2.0 3.0 28 29
r 0.6128 2 3 cbr 1000 ------- 0 2.0 3.0 23 23
+ 0.616 2 3 cbr 1000 ------- 0 2.0 3.0 29 30
- 0.616 2 3 cbr 1000 ------- 0 2.0 3.0 29 30
r 0.6168 2 3 cbr 1000 ------- 0 2.0 3.0 24 24
+ 0.62 2 3 cbr 1000 ------- 0 2.0 3.0 30 31
- 0.62 2 3 cbr 1000 ------- 0 2.0 3.0 30 31
r 0.6208 2 3 cbr 1000 ------- 0 2.0 3.0 25 26
+ 0.624 2 3 cbr 1000 ------- 0 2.0 3.0 31 32
- 0.624 2 3 cbr 1000 ------- 0 2.0 3.0 31 32
r 0.6248 2 3 cbr 1000 ------- 0 2.0 3.0 26 27
+ 0.628 2 3 cbr 1000 ------- 0 2.0 3.0 32 33
- 0.628 2 3 cbr 1000 ------- 0 2.0 3.0 32 33
r 0.6288 2 3 cbr 1000 ------- 0 2.0 3.0 27 28
r 0.6316 2 3 tcp 1000 ------- 1 0.0 4.0 0 25
+ 0.6316 3 4 tcp 1000 ------- 1 0.0 4.0 0 25
- 0.6316 3 4 tcp 1000 ------- 1 0.0 4.0 0 25
+ 0.632 2 3 cbr 1000 ------- 0 2.0 3.0 33 34
- 0.632 2 3 cbr 1000 ------- 0 2.0 3.0 33 34
r 0.6328 2 3 cbr 1000 ------- 0 2.0 3.0 28 29
+ 0.636 2 3 cbr 1000 ------- 0 2.0 3.0 34 35
- 0.636 2 3 cbr 1000 ------- 0 2.0 3.0 34 35
r 0.6368 2 3 cbr 1000 ------- 0 2.0 3.0 29 30
+ 0.64 2 3 cbr 1000 ------- 0 2.0 3.0 35 36
- 0.64 2 3 cbr 1000 ------- 0 2.0 3.0 35 36
r 0.6408 2 3 cbr 1000 ------- 0 2.0 3.0 30 31
r 0.6424 3 4 tcp 1000 ------- 1 0.0 4.0 0 25
+ 0.6424 4 3 ack 40 ------- 1 4.0 0.0 0 37
- 0.6424 4 3 ack 40 ------- 1 4.0 0.0 0 37
+ 0.644 2 3 cbr 1000 ------- 0 2.0 3.0 36 38
- 0.644 2 3 cbr 1000 ------- 0 2.0 3.0 36 38
r 0.6448 2 3 cbr 1000 ------- 0 2.0 3.0 31 32
+ 0.648 2 3 cbr 1000 ------- 0 2.0 3.0 37 39
- 0.648 2 3 cbr 1000 ------- 0 2.0 3.0 37 39
r 0.6488 2 3 cbr 1000 ------- 0 2.0 3.0 32 33
+ 0.652 2 3 cbr 1000 ------- 0 2.0 3.0 38 40
- 0.652 2 3 cbr 1000 ------- 0 2.0 3.0 38 40
r 0.652432 4 3 ack 40 ------- 1 4.0 0.0 0 37
+ 0.652432 3 2 ack 40 ------- 1 4.0 0.0 0 37
- 0.652432 3 2 ack 40 ------- 1 4.0 0.0 0 37
r 0.6528 2 3 cbr 1000 ------- 0 2.0 3.0 33 34
+ 0.656 2 3 cbr 1000 ------- 0 2.0 3.0 39 41
- 0.656 2 3 cbr 1000 ------- 0 2.0 3.0 39 41
r 0.6568 2 3 cbr 1000 ------- 0 2.0 3.0 34 35
+ 0.66 2 3 cbr 1000 ------- 0 2.0 3.0 40 42
- 0.66 2 3 cbr 1000 ------- 0 2.0 3.0 40 42
r 0.6608 2 3 cbr 1000 ------- 0 2.0 3.0 35 36
+ 0.664 2 3 cbr 1000 ------- 0 2.0 3.0 41 43
- 0.664 2 3 cbr 1000 ------- 0 2.0 3.0 41 43
r 0.6648 2 3 cbr 1000 ------- 0 2.0 3.0 36 38
+ 0.668 2 3 cbr 1000 ------- 0 2.0 3.0 42 44
- 0.668 2 3 cbr 1000 ------- 0 2.0 3.0 42 44
r 0.6688 2 3 cbr 1000 ------- 0 2.0 3.0 37 39
+ 0.672 2 3 cbr 1000 ------- 0 2.0 3.0 43 45
- 0.672 2 3 cbr 1000 ------- 0 2.0 3.0 43 45
r 0.672464 3 2 ack 40 ------- 1 4.0 0.0 0 37
+ 0.672464 2 0 ack 40 ------- 1 4.0 0.0 0 37
- 0.672464 2 0 ack 40 ------- 1 4.0 0.0 0 37
r 0.6728 2 3 cbr 1000 ------- 0 2.0 3.0 38 40
+ 0.676 2 3 cbr 1000 ------- 0 2.0 3.0 44 46
- 0.676 2 3 cbr 1000 ------- 0 2.0 3.0 44 46
r 0.6768 2 3 cbr 1000 ------- 0 2.0 3.0 39 41
+ 0.68 2 3 cbr 1000 ------- 0 2.0 3.0 45 47
- 0.68 2 3 cbr 1000 ------- 0 2.0 3.0 45 47
r 0.6808 2 3 cbr 1000 ------- 0 2.0 3.0 40 42
r 0.682496 2 0 ack 40 ------- 1 4.0 0.0 0 37
+ 0.682496 0 2 tcp 1000 ------- 1 0.0 4.0 1 48
- 0.682496 0 2 tcp 1000 ------- 1 0.0 4.0 1 48
+ 0.684 2 3 cbr 1000 ------- 0 2.0 3.0 46 49
- 0.684 2 3 cbr 1000 ------- 0 2.0 3.0 46 49
r 0.6848 2 3 cbr 1000 ------- 0 2.0 3.0 41 43
+ 0.688 2 3 cbr 1000 ------- 0 2.0 3.0 47 50
- 0.688 2 3 cbr 1000 ------- 0 2.0 3.0 47 50
r 0.6888 2 3 cbr 1000 ------- 0 2.0 3.0 42 44
+ 0.692 2 3 cbr 1000 ------- 0 2.0 3.0 48 51
- 0.692 2 3 cbr 1000 ------- 0 2.0 3.0 48 51
r 0.6928 2 3 cbr 1000 ------- 0 2.0 3.0 43 45
r 0.693296 0 2 tcp 1000 ------- 1 0.0 4.0 1 48
+ 0.693296 2 3 tcp 1000 ------- 1 0.0 4.0 1 48
- 0.693296 2 3 tcp 1000 ------- 1 0.0 4.0 1 48
+ 0.696 2 3 cbr 1000 ------- 0 2.0 3.0 49 52
- 0.696 2 3 cbr 1000 ------- 0 2.0 3.0 49 52
r 0.6968 2 3 cbr 1000 ------- 0 2.0 3.0 44 46
+ 0.7 2 3 cbr 1000 ------- 0 2.0 3.0 50 53
- 0.7 2 3 cbr 1000 ------- 0 2.0 3.0 50 53
r 0.7008 2 3 cbr 1000 ------- 0 2.0 3.0 45 47
+ 0.704 2 3 cbr 1000 ------- 0 2.0 3.0 51 54
- 0.704 2 3 cbr 1000 ------- 0 2.0 3.0 51 54
r 0.7048 2 3 cbr 1000 ------- 0 2.0 3.0 46 49
+ 0.708 2 3 cbr 1000 ------- 0 2.0 3.0 52 55
- 0.708 2 3 cbr 1000 ------- 0 2.0 3.0 52 55
r 0.7088 2 3 cbr 1000 ------- 0 2.0 3.0 47 50
+ 0.712 2 3 cbr 1000 ------- 0 2.0 3.0 53 56
- 0.712 2 3 cbr 1000 ------- 0 2.0 3.0 53 56
r 0.7128 2 3 cbr 1000 ------- 0 2.0 3.0 48 51
r 0.714096 2 3 tcp 1000 ------- 1 0.0 4.0 1 48
+ 0.714096 3 4 tcp 1000 ------- 1 0.0 4.0 1 48
- 0.714096 3 4 tcp 1000 ------- 1 0.0 4.0 1 48
+ 0.716 2 3 cbr 1000 ------- 0 2.0 3.0 54 57
- 0.716 2 3 cbr 1000 ------- 0 2.0 3.0 54 57
r 0.7168 2 3 cbr 1000 ------- 0 2.0 3.0 49 52
+ 0.72 2 3 cbr 1000 ------- 0 2.0 3.0 55 58
- 0.72 2 3 cbr 1000 ------- 0 2.0 3.0 55 58
r 0.7208 2 3 cbr 1000 ------- 0 2.0 3.0 50 53
+ 0.724 2 3 cbr 1000 ------- 0 2.0 3.0 56 59
- 0.724 2 3 cbr 1000 ------- 0 2.0 3.0 56 59
r 0.7248 2 3 cbr 1000 ------- 0 2.0 3.0 51 54
r 0.724896 3 4 tcp 1000 ------- 1 0.0 4.0 1 48
+ 0.724896 4 3 ack 40 ------- 1 4.0 0.0 1 60
- 0.724896 4 3 ack 40 ------- 1 4.0 0.0 1 60
+ 0.728 2 3 cbr 1000 ------- 0 2.0 3.0 57 61
- 0.728 2 3 cbr 1000 ------- 0 2.0 3.0 57 61
r 0.7288 2 3 cbr 1000 ------- 0 2.0 3.0 52 55
+ 0.732 2 3 cbr 1000 ------- 0 2.0 3.0 58 62
- 0.732 2 3 cbr 1000 ------- 0 2.0 3.0 58 62
r 0.7328 2 3 cbr 1000 ------- 0 2.0 3.0 53 56
r 0.734928 4 3 ack 40 ------- 1 4.0 0.0 1 60
+ 0.734928 3 2 ack 40 ------- 1 4.0 0.0 1 60
- 0.734928 3 2 ack 40 ------- 1 4.0 0.0 1 60
+ 0.736 2 3 cbr 1000 ------- 0 2.0 3.0 59 63
- 0.736 2 3 cbr 1000 ------- 0 2.0 3.0 59 63
r 0.7368 2 3 cbr 1000 ------- 0 2.0 3.0 54 57
+ 0.74 2 3 cbr 1000 ------- 0 2.0 3.0 60 64
- 0.74 2 3 cbr 1000 ------- 0 2.0 3.0 60 64
r 0.7408 2 3 cbr 1000 ------- 0 2.0 3.0 55 58
+ 0.744 2 3 cbr 1000 ------- 0 2.0 3.0 61 65
- 0.744 2 3 cbr 1000 ------- 0 2.0 3.0 61 65
r 0.7448 2 3 cbr 1000 ------- 0 2.0 3.0 56 59
+ 0.748 2 3 cbr 1000 ------- 0 2.0 3.0 62 66
- 0.748 2 3 cbr 1000 ------- 0 2.0 3.0 62 66
r 0.7488 2 3 cbr 1000 ------- 0 2.0 3.0 57 61
+ 0.752 2 3 cbr 1000 ------- 0 2.0 3.0 63 67
- 0.752 2 3 cbr 1000 ------- 0 2.0 3.0 63 67
r 0.7528 2 3 cbr 1000 ------- 0 2.0 3.0 58 62
r 0.75496 3 2 ack 40 ------- 1 4.0 0.0 1 60
+ 0.75496 2 0 ack 40 ------- 1 4.0 0.0 1 60
- 0.75496 2 0 ack 40 ------- 1 4.0 0.0 1 60
+ 0.756 2 3 cbr 1000 ------- 0 2.0 3.0 64 68
- 0.756 2 3 cbr 1000 ------- 0 2.0 3.0 64 68
r 0.7568 2 3 cbr 1000 ------- 0 2.0 3.0 59 63
+ 0.76 2 3 cbr 1000 ------- 0 2.0 3.0 65 69
- 0.76 2 3 cbr 1000 ------- 0 2.0 3.0 65 69
r 0.7608 2 3 cbr 1000 ------- 0 2.0 3.0 60 64
+ 0.764 2 3 cbr 1000 ------- 0 2.0 3.0 66 70
- 0.764 2 3 cbr 1000 ------- 0 2.0 3.0 66 70
r 0.7648 2 3 cbr 1000 ------- 0 2.0 3.0 61 65
r 0.764992 2 0 ack 40 ------- 1 4.0 0.0 1 60
+ 0.764992 0 2 tcp 1000 ------- 1 0.0 4.0 2 71
- 0.764992 0 2 tcp 1000 ------- 1 0.0 4.0 2 71
+ 0.764992 0 2 tcp 1000 ------- 1 0.0 4.0 3 72
+ 0.764992 0 2 tcp 1000 ------- 1 0.0 4.0 4 73
- 0.765792 0 2 tcp 1000 ------- 1 0.0 4.0 3 72
- 0.766592 0 2 tcp 1000 ------- 1 0.0 4.0 4 73
+ 0.768 2 3 cbr 1000 ------- 0 2.0 3.0 67 74
- 0.768 2 3 cbr 1000 ------- 0 2.0 3.0 67 74
r 0.7688 2 3 cbr 1000 ------- 0 2.0 3.0 62 66
+ 0.772 2 3 cbr 1000 ------- 0 2.0 3.0 68 75
- 0.772 2 3 cbr 1000 ------- 0 2.0 3.0 68 75
r 0.7728 2 3 cbr 1000 ------- 0 2.0 3.0 63 67
r 0.775792 0 2 tcp 1000 ------- 1 0.0 4.0 2 71
+ 0.775792 2 3 tcp 1000 ------- 1 0.0 4.0 2 71
- 0.775792 2 3 tcp 1000 ------- 1 0.0 4.0 2 71
+ 0.776 2 3 cbr 1000 ------- 0 2.0 3.0 69 76
r 0.776592 0 2 tcp 1000 ------- 1 0.0 4.0 3 72
+ 0.776592 2 3 tcp 1000 ------- 1 0.0 4.0 3 72
- 0.776592 2 3 cbr 1000 ------- 0 2.0 3.0 69 76
r 0.7768 2 3 cbr 1000 ------- 0 2.0 3.0 64 68
r 0.777392 0 2 tcp 1000 ------- 1 0.0 4.0 4 73
+ 0.777392 2 3 tcp 1000 ------- 1 0.0 4.0 4 73
- 0.777392 2 3 tcp 1000 ------- 1 0.0 4.0 3 72
- 0.778192 2 3 tcp 1000 ------- 1 0.0 4.0 4 73
+ 0.78 2 3 cbr 1000 ------- 0 2.0 3.0 70 77
- 0.78 2 3 cbr 1000 ------- 0 2.0 3.0 70 77
r 0.7808 2 3 cbr 1000 ------- 0 2.0 3.0 65 69
+ 0.784 2 3 cbr 1000 ------- 0 2.0 3.0 71 78
- 0.784 2 3 cbr 1000 ------- 0 2.0 3.0 71 78
r 0.7848 2 3 cbr 1000 ------- 0 2.0 3.0 66 70
+ 0.788 2 3 cbr 1000 ------- 0 2.0 3.0 72 79
- 0.788 2 3 cbr 1000 ------- 0 2.0 3.0 72 79
r 0.7888 2 3 cbr 1000 ------- 0 2.0 3.0 67 74
+ 0.792 2 3 cbr 1000 ------- 0 2.0 3.0 73 80
- 0.792 2 3 cbr 1000 ------- 0 2.0 3.0 73 80
r 0.7928 2 3 cbr 1000 ------- 0 2.0 3.0 68 75
+ 0.796 2 3 cbr 1000 ------- 0 2.0 3.0 74 81
- 0.796 2 3 cbr 1000 ------- 0 2.0 3.0 74 81
r 0.796592 2 3 tcp 1000 ------- 1 0.0 4.0 2 71
+ 0.796592 3 4 tcp 1000 ------- 1 0.0 4.0 2 71
- 0.796592 3 4 tcp 1000 ------- 1 0.0 4.0 2 71
r 0.797392 2 3 cbr 1000 ------- 0 2.0 3.0 69 76
r 0.798192 2 3 tcp 1000 ------- 1 0.0 4.0 3 72
+ 0.798192 3 4 tcp 1000 ------- 1 0.0 4.0 3 72
- 0.798192 3 4 tcp 1000 ------- 1 0.0 4.0 3 72
r 0.798992 2 3 tcp 1000 ------- 1 0.0 4.0 4 73
+ 0.798992 3 4 tcp 1000 ------- 1 0.0 4.0 4 73
- 0.798992 3 4 tcp 1000 ------- 1 0.0 4.0 4 73
+ 0.8 2 3 cbr 1000 ------- 0 2.0 3.0 75 82
- 0.8 2 3 cbr 1000 ------- 0 2.0 3.0 75 82
r 0.8008 2 3 cbr 1000 ------- 0 2.0 3.0 70 77
+ 0.804 2 3 cbr 1000 ------- 0 2.0 3.0 76 83
- 0.804 2 3 cbr 1000 ------- 0 2.0 3.0 76 83
r 0.8048 2 3 cbr 1000 ------- 0 2.0 3.0 71 78
r 0.807392 3 4 tcp 1000 ------- 1 0.0 4.0 2 71
+ 0.807392 4 3 ack 40 ------- 1 4.0 0.0 2 84
- 0.807392 4 3 ack 40 ------- 1 4.0 0.0 2 84
+ 0.808 2 3 cbr 1000 ------- 0 2.0 3.0 77 85
- 0.808 2 3 cbr 1000 ------- 0 2.0 3.0 77 85
r 0.8088 2 3 cbr 1000 ------- 0 2.0 3.0 72 79
r 0.808992 3 4 tcp 1000 ------- 1 0.0 4.0 3 72
+ 0.808992 4 3 ack 40 ------- 1 4.0 0.0 3 86
- 0.808992 4 3 ack 40 ------- 1 4.0 0.0 3 86
r 0.809792 3 4 tcp 1000 ------- 1 0.0 4.0 4 73
+ 0.809792 4 3 ack 40 ------- 1 4.0 0.0 4 87
- 0.809792 4 3 ack 40 ------- 1 4.0 0.0 4 87
+ 0.812 2 3 cbr 1000 ------- 0 2.0 3.0 78 88
- 0.812 2 3 cbr 1000 ------- 0 2.0 3.0 78 88
r 0.8128 2 3 cbr 1000 ------- 0 2.0 3.0 73 80
+ 0.816 2 3 cbr 1000 ------- 0 2.0 3.0 79 89
- 0.816 2 3 cbr 1000 ------- 0 2.0 3.0 79 89
r 0.8168 2 3 cbr 1000 ------- 0 2.0 3.0 74 81
r 0.817424 4 3 ack 40 ------- 1 4.0 0.0 2 84
+ 0.817424 3 2 ack 40 ------- 1 4.0 0.0 2 84
- 0.817424 3 2 ack 40 ------- 1 4.0 0.0 2 84
r 0.819024 4 3 ack 40 ------- 1 4.0 0.0 3 86
+ 0.819024 3 2 ack 40 ------- 1 4.0 0.0 3 86
- 0.819024 3 2 ack 40 ------- 1 4.0 0.0 3 86
r 0.819824 4 3 ack 40 ------- 1 4.0 0.0 4 87
+ 0.819824 3 2 ack 40 ------- 1 4.0 0.0 4 87
- 0.819824 3 2 ack 40 ------- 1 4.0 0.0 4 87
+ 0.82 2 3 cbr 1000 ------- 0 2.0 3.0 80 90
- 0.82 2 3 cbr 1000 ------- 0 2.0 3.0 80 90
r 0.8208 2 3 cbr 1000 ------- 0 2.0 3.0 75 82
+ 0.824 2 3 cbr 1000 ------- 0 2.0 3.0 81 91
- 0.824 2 3 cbr 1000 ------- 0 2.0 3.0 81 91
r 0.8248 2 3 cbr 1000 ------- 0 2.0 3.0 76 83
+ 0.828 2 3 cbr 1000 ------- 0 2.0 3.0 82 92
- 0.828 2 3 cbr 1000 ------- 0 2.0 3.0 82 92
r 0.8288 2 3 cbr 1000 ------- 0 2.0 3.0 77 85
+ 0.832 2 3 cbr 1000 ------- 0 2.0 3.0 83 93
- 0.832 2 3 cbr 1000 ------- 0 2.0 3.0 83 93
r 0.8328 2 3 cbr 1000 ------- 0 2.0 3.0 78 88
+ 0.836 2 3 cbr 1000 ------- 0 2.0 3.0 84 94
- 0.836 2 3 cbr 1000 ------- 0 2.0 3.0 84 94
r 0.8368 2 3 cbr 1000 ------- 0 2.0 3.0 79 89
r 0.837456 3 2 ack 40 ------- 1 4.0 0.0 2 84
+ 0.837456 2 0 ack 40 ------- 1 4.0 0.0 2 84
- 0.837456 2 0 ack 40 ------- 1 4.0 0.0 2 84
r 0.839056 3 2 ack 40 ------- 1 4.0 0.0 3 86
+ 0.839056 2 0 ack 40 ------- 1 4.0 0.0 3 86
- 0.839056 2 0 ack 40 ------- 1 4.0 0.0 3 86
r 0.839856 3 2 ack 40 ------- 1 4.0 0.0 4 87
+ 0.839856 2 0 ack 40 ------- 1 4.0 0.0 4 87
- 0.839856 2 0 ack 40 ------- 1 4.0 0.0 4 87
+ 0.84 2 3 cbr 1000 ------- 0 2.0 3.0 85 95
- 0.84 2 3 cbr 1000 ------- 0 2.0 3.0 85 95
r 0.8408 2 3 cbr 1000 ------- 0 2.0 3.0 80 90
+ 0.844 2 3 cbr 1000 ------- 0 2.0 3.0 86 96
- 0.844 2 3 cbr 1000 ------- 0 2.0 3.0 86 96
r 0.8448 2 3 cbr 1000 ------- 0 2.0 3.0 81 91
r 0.847488 2 0 ack 40 ------- 1 4.0 0.0 2 84
+ 0.847488 0 2 tcp 1000 ------- 1 0.0 4.0 5 97
- 0.847488 0 2 tcp 1000 ------- 1 0.0 4.0 5 97
+ 0.848 2 3 cbr 1000 ------- 0 2.0 3.0 87 98
- 0.848 2 3 cbr 1000 ------- 0 2.0 3.0 87 98
r 0.8488 2 3 cbr 1000 ------- 0 2.0 3.0 82 92
r 0.849088 2 0 ack 40 ------- 1 4.0 0.0 3 86
+ 0.849088 0 2 tcp 1000 ------- 1 0.0 4.0 6 99
- 0.849088 0 2 tcp 1000 ------- 1 0.0 4.0 6 99
r 0.849888 2 0 ack 40 ------- 1 4.0 0.0 4 87
+ 0.849888 0 2 tcp 1000 ------- 1 0.0 4.0 7 100
- 0.849888 0 2 tcp 1000 ------- 1 0.0 4.0 7 100
+ 0.852 2 3 cbr 1000 ------- 0 2.0 3.0 88 101
- 0.852 2 3 cbr 1000 ------- 0 2.0 3.0 88 101
r 0.8528 2 3 cbr 1000 ------- 0 2.0 3.0 83 93
+ 0.856 2 3 cbr 1000 ------- 0 2.0 3.0 89 102
- 0.856 2 3 cbr 1000 ------- 0 2.0 3.0 89 102
r 0.8568 2 3 cbr 1000 ------- 0 2.0 3.0 84 94
r 0.858288 0 2 tcp 1000 ------- 1 0.0 4.0 5 97
+ 0.858288 2 3 tcp 1000 ------- 1 0.0 4.0 5 97
- 0.858288 2 3 tcp 1000 ------- 1 0.0 4.0 5 97
r 0.859888 0 2 tcp 1000 ------- 1 0.0 4.0 6 99
+ 0.859888 2 3 tcp 1000 ------- 1 0.0 4.0 6 99
- 0.859888 2 3 tcp 1000 ------- 1 0.0 4.0 6 99
+ 0.86 2 3 cbr 1000 ------- 0 2.0 3.0 90 103
r 0.860688 0 2 tcp 1000 ------- 1 0.0 4.0 7 100
+ 0.860688 2 3 tcp 1000 ------- 1 0.0 4.0 7 100
- 0.860688 2 3 cbr 1000 ------- 0 2.0 3.0 90 103
r 0.8608 2 3 cbr 1000 ------- 0 2.0 3.0 85 95
- 0.861488 2 3 tcp 1000 ------- 1 0.0 4.0 7 100
+ 0.864 2 3 cbr 1000 ------- 0 2.0 3.0 91 104
- 0.864 2 3 cbr 1000 ------- 0 2.0 3.0 91 104
r 0.8648 2 3 cbr 1000 ------- 0 2.0 3.0 86 96
+ 0.868 2 3 cbr 1000 ------- 0 2.0 3.0 92 105
- 0.868 2 3 cbr 1000 ------- 0 2.0 3.0 92 105
r 0.8688 2 3 cbr 1000 ------- 0 2.0 3.0 87 98
+ 0.872 2 3 cbr 1000 ------- 0 2.0 3.0 93 106
- 0.872 2 3 cbr 1000 ------- 0 2.0 3.0 93 106
r 0.8728 2 3 cbr 1000 ------- 0 2.0 3.0 88 101
+ 0.876 2 3 cbr 1000 ------- 0 2.0 3.0 94 107
- 0.876 2 3 cbr 1000 ------- 0 2.0 3.0 94 107
r 0.8768 2 3 cbr 1000 ------- 0 2.0 3.0 89 102
r 0.879088 2 3 tcp 1000 ------- 1 0.0 4.0 5 97
+ 0.879088 3 4 tcp 1000 ------- 1 0.0 4.0 5 97
- 0.879088 3 4 tcp 1000 ------- 1 0.0 4.0 5 97
+ 0.88 2 3 cbr 1000 ------- 0 2.0 3.0 95 108
- 0.88 2 3 cbr 1000 ------- 0 2.0 3.0 95 108
r 0.880688 2 3 tcp 1000 ------- 1 0.0 4.0 6 99
+ 0.880688 3 4 tcp 1000 ------- 1 0.0 4.0 6 99
- 0.880688 3 4 tcp 1000 ------- 1 0.0 4.0 6 99
r 0.881488 2 3 cbr 1000 ------- 0 2.0 3.0 90 103
r 0.882288 2 3 tcp 1000 ------- 1 0.0 4.0 7 100
+ 0.882288 3 4 tcp 1000 ------- 1 0.0 4.0 7 100
- 0.882288 3 4 tcp 1000 ------- 1 0.0 4.0 7 100
+ 0.884 2 3 cbr 1000 ------- 0 2.0 3.0 96 109
- 0.884 2 3 cbr 1000 ------- 0 2.0 3.0 96 109
r 0.8848 2 3 cbr 1000 ------- 0 2.0 3.0 91 104
+ 0.888 2 3 cbr 1000 ------- 0 2.0 3.0 97 110
- 0.888 2 3 cbr 1000 ------- 0 2.0 3.0 97 110
r 0.8888 2 3 cbr 1000 ------- 0 2.0 3.0 92 105
r 0.889888 3 4 tcp 1000 ------- 1 0.0 4.0 5 97
+ 0.889888 4 3 ack 40 ------- 1 4.0 0.0 5 111
- 0.889888 4 3 ack 40 ------- 1 4.0 0.0 5 111
r 0.891488 3 4 tcp 1000 ------- 1 0.0 4.0 6 99
+ 0.891488 4 3 ack 40 ------- 1 4.0 0.0 6 112
- 0.891488 4 3 ack 40 ------- 1 4.0 0.0 6 112
+ 0.892 2 3 cbr 1000 ------- 0 2.0 3.0 98 113
- 0.892 2 3 cbr 1000 ------- 0 2.0 3.0 98 113
r 0.8928 2 3 cbr 1000 ------- 0 2.0 3.0 93 106
r 0.893088 3 4 tcp 1000 ------- 1 0.0 4.0 7 100
+ 0.893088 4 3 ack 40 ------- 1 4.0 0.0 7 114
- 0.893088 4 3 ack 40 ------- 1 4.0 0.0 7 114
+ 0.896 2 3 cbr 1000 ------- 0 2.0 3.0 99 115
- 0.896 2 3 cbr 1000 ------- 0 2.0 3.0 99 115
r 0.8968 2 3 cbr 1000 ------- 0 2.0 3.0 94 107
r 0.89992 4 3 ack 40 ------- 1 4.0 0.0 5 111
+ 0.89992 3 2 ack 40 ------- 1 4.0 0.0 5 111
- 0.89992 3 2 ack 40 ------- 1 4.0 0.0 5 111
+ 0.9 2 3 cbr 1000 ------- 0 2.0 3.0 100 116
- 0.9 2 3 cbr 1000 ------- 0 2.0 3.0 100 116
r 0.9008 2 3 cbr 1000 ------- 0 2.0 3.0 95 108
r 0.90152 4 3 ack 40 ------- 1 4.0 0.0 6 112
+ 0.90152 3 2 ack 40 ------- 1 4.0 0.0 6 112
- 0.90152 3 2 ack 40 ------- 1 4.0 0.0 6 112
r 0.90312 4 3 ack 40 ------- 1 4.0 0.0 7 114
+ 0.90312 3 2 ack 40 ------- 1 4.0 0.0 7 114
- 0.90312 3 2 ack 40 ------- 1 4.0 0.0 7 114
+ 0.904 2 3 cbr 1000 ------- 0 2.0 3.0 101 117
- 0.904 2 3 cbr 1000 ------- 0 2.0 3.0 101 117
r 0.9048 2 3 cbr 1000 ------- 0 2.0 3.0 96 109
+ 0.908 2 3 cbr 1000 ------- 0 2.0 3.0 102 118
- 0.908 2 3 cbr 1000 ------- 0 2.0 3.0 102 118
r 0.9088 2 3 cbr 1000 ------- 0 2.0 3.0 97 110
+ 0.912 2 3 cbr 1000 ------- 0 2.0 3.0 103 119
- 0.912 2 3 cbr 1000 ------- 0 2.0 3.0 103 119
r 0.9128 2 3 cbr 1000 ------- 0 2.0 3.0 98 113
+ 0.916 2 3 cbr 1000 ------- 0 2.0 3.0 104 120
- 0.916 2 3 cbr 1000 ------- 0 2.0 3.0 104 120
r 0.9168 2 3 cbr 1000 ------- 0 2.0 3.0 99 115
r 0.919952 3 2 ack 40 ------- 1 4.0 0.0 5 111
+ 0.919952 2 0 ack 40 ------- 1 4.0 0.0 5 111
- 0.919952 2 0 ack 40 ------- 1 4.0 0.0 5 111
+ 0.92 2 3 cbr 1000 ------- 0 2.0 3.0 105 121
- 0.92 2 3 cbr 1000 ------- 0 2.0 3.0 105 121
r 0.9208 2 3 cbr 1000 ------- 0 2.0 3.0 100 116
r 0.921552 3 2 ack 40 ------- 1 4.0 0.0 6 112
+ 0.921552 2 0 ack 40 ------- 1 4.0 0.0 6 112
- 0.921552 2 0 ack 40 ------- 1 4.0 0.0 6 112
r 0.923152 3 2 ack 40 ------- 1 4.0 0.0 7 114
+ 0.923152 2 0 ack 40 ------- 1 4.0 0.0 7 114
- 0.923152 2 0 ack 40 ------- 1 4.0 0.0 7 114
+ 0.924 2 3 cbr 1000 ------- 0 2.0 3.0 106 122
- 0.924 2 3 cbr 1000 ------- 0 2.0 3.0 106 122
r 0.9248 2 3 cbr 1000 ------- 0 2.0 3.0 101 117
+ 0.928 2 3 cbr 1000 ------- 0 2.0 3.0 107 123
- 0.928 2 3 cbr 1000 ------- 0 2.0 3.0 107 123
r 0.9288 2 3 cbr 1000 ------- 0 2.0 3.0 102 118
r 0.929984 2 0 ack 40 ------- 1 4.0 0.0 5 111
+ 0.929984 0 2 tcp 1000 ------- 1 0.0 4.0 8 124
- 0.929984 0 2 tcp 1000 ------- 1 0.0 4.0 8 124
+ 0.929984 0 2 tcp 1000 ------- 1 0.0 4.0 9 125
- 0.930784 0 2 tcp 1000 ------- 1 0.0 4.0 9 125
r 0.931584 2 0 ack 40 ------- 1 4.0 0.0 6 112
+ 0.931584 0 2 tcp 1000 ------- 1 0.0 4.0 10 126
+ 0.931584 0 2 tcp 1000 ------- 1 0.0 4.0 11 127
- 0.931584 0 2 tcp 1000 ------- 1 0.0 4.0 10 126
+ 0.932 2 3 cbr 1000 ------- 0 2.0 3.0 108 128
- 0.932 2 3 cbr 1000 ------- 0 2.0 3.0 108 128
- 0.932384 0 2 tcp 1000 ------- 1 0.0 4.0 11 127
r 0.9328 2 3 cbr 1000 ------- 0 2.0 3.0 103 119
r 0.933184 2 0 ack 40 ------- 1 4.0 0.0 7 114
+ 0.933184 0 2 tcp 1000 ------- 1 0.0 4.0 12 129
+ 0.933184 0 2 tcp 1000 ------- 1 0.0 4.0 13 130
- 0.933184 0 2 tcp 1000 ------- 1 0.0 4.0 12 129
- 0.933984 0 2 tcp 1000 ------- 1 0.0 4.0 13 130
+ 0.936 2 3 cbr 1000 ------- 0 2.0 3.0 109 131
- 0.936 2 3 cbr 1000 ------- 0 2.0 3.0 109 131
r 0.9368 2 3 cbr 1000 ------- 0 2.0 3.0 104 120
+ 0.94 2 3 cbr 1000 ------- 0 2.0 3.0 110 132
- 0.94 2 3 cbr 1000 ------- 0 2.0 3.0 110 132
r 0.940784 0 2 tcp 1000 ------- 1 0.0 4.0 8 124
+ 0.940784 2 3 tcp 1000 ------- 1 0.0 4.0 8 124
r 0.9408 2 3 cbr 1000 ------- 0 2.0 3.0 105 121
- 0.9408 2 3 tcp 1000 ------- 1 0.0 4.0 8 124
r 0.941584 0 2 tcp 1000 ------- 1 0.0 4.0 9 125
+ 0.941584 2 3 tcp 1000 ------- 1 0.0 4.0 9 125
- 0.9416 2 3 tcp 1000 ------- 1 0.0 4.0 9 125
r 0.942384 0 2 tcp 1000 ------- 1 0.0 4.0 10 126
+ 0.942384 2 3 tcp 1000 ------- 1 0.0 4.0 10 126
- 0.9424 2 3 tcp 1000 ------- 1 0.0 4.0 10 126
r 0.943184 0 2 tcp 1000 ------- 1 0.0 4.0 11 127
+ 0.943184 2 3 tcp 1000 ------- 1 0.0 4.0 11 127
- 0.9432 2 3 tcp 1000 ------- 1 0.0 4.0 11 127
r 0.943984 0 2 tcp 1000 ------- 1 0.0 4.0 12 129
+ 0.943984 2 3 tcp 1000 ------- 1 0.0 4.0 12 129
+ 0.944 2 3 cbr 1000 ------- 0 2.0 3.0 111 133
- 0.944 2 3 tcp 1000 ------- 1 0.0 4.0 12 129
r 0.944784 0 2 tcp 1000 ------- 1 0.0 4.0 13 130
+ 0.944784 2 3 tcp 1000 ------- 1 0.0 4.0 13 130
r 0.9448 2 3 cbr 1000 ------- 0 2.0 3.0 106 122
- 0.9448 2 3 cbr 1000 ------- 0 2.0 3.0 111 133
- 0.9456 2 3 tcp 1000 ------- 1 0.0 4.0 13 130
+ 0.948 2 3 cbr 1000 ------- 0 2.0 3.0 112 134
- 0.948 2 3 cbr 1000 ------- 0 2.0 3.0 112 134
r 0.9488 2 3 cbr 1000 ------- 0 2.0 3.0 107 123
+ 0.952 2 3 cbr 1000 ------- 0 2.0 3.0 113 135
- 0.952 2 3 cbr 1000 ------- 0 2.0 3.0 113 135
r 0.9528 2 3 cbr 1000 ------- 0 2.0 3.0 108 128
+ 0.956 2 3 cbr 1000 ------- 0 2.0 3.0 114 136
- 0.956 2 3 cbr 1000 ------- 0 2.0 3.0 114 136
r 0.9568 2 3 cbr 1000 ------- 0 2.0 3.0 109 131
+ 0.96 2 3 cbr 1000 ------- 0 2.0 3.0 115 137
- 0.96 2 3 cbr 1000 ------- 0 2.0 3.0 115 137
r 0.9608 2 3 cbr 1000 ------- 0 2.0 3.0 110 132
r 0.9616 2 3 tcp 1000 ------- 1 0.0 4.0 8 124
+ 0.9616 3 4 tcp 1000 ------- 1 0.0 4.0 8 124
- 0.9616 3 4 tcp 1000 ------- 1 0.0 4.0 8 124
r 0.9624 2 3 tcp 1000 ------- 1 0.0 4.0 9 125
+ 0.9624 3 4 tcp 1000 ------- 1 0.0 4.0 9 125
- 0.9624 3 4 tcp 1000 ------- 1 0.0 4.0 9 125
r 0.9632 2 3 tcp 1000 ------- 1 0.0 4.0 10 126
+ 0.9632 3 4 tcp 1000 ------- 1 0.0 4.0 10 126
- 0.9632 3 4 tcp 1000 ------- 1 0.0 4.0 10 126
+ 0.964 2 3 cbr 1000 ------- 0 2.0 3.0 116 138
- 0.964 2 3 cbr 1000 ------- 0 2.0 3.0 116 138
r 0.964 2 3 tcp 1000 ------- 1 0.0 4.0 11 127
+ 0.964 3 4 tcp 1000 ------- 1 0.0 4.0 11 127
- 0.964 3 4 tcp 1000 ------- 1 0.0 4.0 11 127
r 0.9648 2 3 tcp 1000 ------- 1 0.0 4.0 12 129
+ 0.9648 3 4 tcp 1000 ------- 1 0.0 4.0 12 129
- 0.9648 3 4 tcp 1000 ------- 1 0.0 4.0 12 129
r 0.9656 2 3 cbr 1000 ------- 0 2.0 3.0 111 133
r 0.9664 2 3 tcp 1000 ------- 1 0.0 4.0 13 130
+ 0.9664 3 4 tcp 1000 ------- 1 0.0 4.0 13 130
- 0.9664 3 4 tcp 1000 ------- 1 0.0 4.0 13 130
+ 0.968 2 3 cbr 1000 ------- 0 2.0 3.0 117 139
- 0.968 2 3 cbr 1000 ------- 0 2.0 3.0 117 139
r 0.9688 2 3 cbr 1000 ------- 0 2.0 3.0 112 134
+ 0.972 2 3 cbr 1000 ------- 0 2.0 3.0 118 140
- 0.972 2 3 cbr 1000 ------- 0 2.0 3.0 118 140
r 0.9724 3 4 tcp 1000 ------- 1 0.0 4.0 8 124
+ 0.9724 4 3 ack 40 ------- 1 4.0 0.0 8 141
- 0.9724 4 3 ack 40 ------- 1 4.0 0.0 8 141
r 0.9728 2 3 cbr 1000 ------- 0 2.0 3.0 113 135
r 0.9732 3 4 tcp 1000 ------- 1 0.0 4.0 9 125
+ 0.9732 4 3 ack 40 ------- 1 4.0 0.0 9 142
- 0.9732 4 3 ack 40 ------- 1 4.0 0.0 9 142
r 0.974 3 4 tcp 1000 ------- 1 0.0 4.0 10 126
+ 0.974 4 3 ack 40 ------- 1 4.0 0.0 10 143
- 0.974 4 3 ack 40 ------- 1 4.0 0.0 10 143
r 0.9748 3 4 tcp 1000 ------- 1 0.0 4.0 11 127
+ 0.9748 4 3 ack 40 ------- 1 4.0 0.0 11 144
- 0.9748 4 3 ack 40 ------- 1 4.0 0.0 11 144
r 0.9756 3 4 tcp 1000 ------- 1 0.0 4.0 12 129
+ 0.9756 4 3 ack 40 ------- 1 4.0 0.0 12 145
- 0.9756 4 3 ack 40 ------- 1 4.0 0.0 12 145
+ 0.976 2 3 cbr 1000 ------- 0 2.0 3.0 119 146
- 0.976 2 3 cbr 1000 ------- 0 2.0 3.0 119 146
r 0.9768 2 3 cbr 1000 ------- 0 2.0 3.0 114 136
r 0.9772 3 4 tcp 1000 ------- 1 0.0 4.0 13 130
+ 0.9772 4 3 ack 40 ------- 1 4.0 0.0 13 147
- 0.9772 4 3 ack 40 ------- 1 4.0 0.0 13 147
+ 0.98 2 3 cbr 1000 ------- 0 2.0 3.0 120 148
- 0.98 2 3 cbr 1000 ------- 0 2.0 3.0 120 148
r 0.9808 2 3 cbr 1000 ------- 0 2.0 3.0 115 137
r 0.982432 4 3 ack 40 ------- 1 4.0 0.0 8 141
+ 0.982432 3 2 ack 40 ------- 1 4.0 0.0 8 141
- 0.982432 3 2 ack 40 ------- 1 4.0 0.0 8 141
r 0.983232 4 3 ack 40 ------- 1 4.0 0.0 9 142
+ 0.983232 3 2 ack 40 ------- 1 4.0 0.0 9 142
- 0.983232 3 2 ack 40 ------- 1 4.0 0.0 9 142
+ 0.984 2 3 cbr 1000 ------- 0 2.0 3.0 121 149
- 0.984 2 3 cbr 1000 ------- 0 2.0 3.0 121 149
r 0.984032 4 3 ack 40 ------- 1 4.0 0.0 10 143
+ 0.984032 3 2 ack 40 ------- 1 4.0 0.0 10 143
- 0.984032 3 2 ack 40 ------- 1 4.0 0.0 10 143
r 0.9848 2 3 cbr 1000 ------- 0 2.0 3.0 116 138
r 0.984832 4 3 ack 40 ------- 1 4.0 0.0 11 144
+ 0.984832 3 2 ack 40 ------- 1 4.0 0.0 11 144
- 0.984832 3 2 ack 40 ------- 1 4.0 0.0 11 144
r 0.985632 4 3 ack 40 ------- 1 4.0 0.0 12 145
+ 0.985632 3 2 ack 40 ------- 1 4.0 0.0 12 145
- 0.985632 3 2 ack 40 ------- 1 4.0 0.0 12 145
r 0.987232 4 3 ack 40 ------- 1 4.0 0.0 13 147
+ 0.987232 3 2 ack 40 ------- 1 4.0 0.0 13 147
- 0.987232 3 2 ack 40 ------- 1 4.0 0.0 13 147
+ 0.988 2 3 cbr 1000 ------- 0 2.0 3.0 122 150
- 0.988 2 3 cbr 1000 ------- 0 2.0 3.0 122 150
r 0.9888 2 3 cbr 1000 ------- 0 2.0 3.0 117 139
+ 0.992 2 3 cbr 1000 ------- 0 2.0 3.0 123 151
- 0.992 2 3 cbr 1000 ------- 0 2.0 3.0 123 151
r 0.9928 2 3 cbr 1000 ------- 0 2.0 3.0 118 140
+ 0.996 2 3 cbr 1000 ------- 0 2.0 3.0 124 152
- 0.996 2 3 cbr 1000 ------- 0 2.0 3.0 124 152
r 0.9968 2 3 cbr 1000 ------- 0 2.0 3.0 119 146
+ 1 2 3 cbr 1000 ------- 0 2.0 3.0 125 153
- 1 2 3 cbr 1000 ------- 0 2.0 3.0 125 153
r 1.0008 2 3 cbr 1000 ------- 0 2.0 3.0 120 148
r 1.002464 3 2 ack 40 ------- 1 4.0 0.0 8 141
+ 1.002464 2 0 ack 40 ------- 1 4.0 0.0 8 141
- 1.002464 2 0 ack 40 ------- 1 4.0 0.0 8 141
r 1.003264 3 2 ack 40 ------- 1 4.0 0.0 9 142
+ 1.003264 2 0 ack 40 ------- 1 4.0 0.0 9 142
- 1.003264 2 0 ack 40 ------- 1 4.0 0.0 9 142
+ 1.004 2 3 cbr 1000 ------- 0 2.0 3.0 126 154
- 1.004 2 3 cbr 1000 ------- 0 2.0 3.0 126 154
r 1.004064 3 2 ack 40 ------- 1 4.0 0.0 10 143
+ 1.004064 2 0 ack 40 ------- 1 4.0 0.0 10 143
- 1.004064 2 0 ack 40 ------- 1 4.0 0.0 10 143
r 1.0048 2 3 cbr 1000 ------- 0 2.0 3.0 121 149
r 1.004864 3 2 ack 40 ------- 1 4.0 0.0 11 144
+ 1.004864 2 0 ack 40 ------- 1 4.0 0.0 11 144
- 1.004864 2 0 ack 40 ------- 1 4.0 0.0 11 144
r 1.005664 3 2 ack 40 ------- 1 4.0 0.0 12 145
+ 1.005664 2 0 ack 40 ------- 1 4.0 0.0 12 145
- 1.005664 2 0 ack 40 ------- 1 4.0 0.0 12 145
r 1.007264 3 2 ack 40 ------- 1 4.0 0.0 13 147
+ 1.007264 2 0 ack 40 ------- 1 4.0 0.0 13 147
- 1.007264 2 0 ack 40 ------- 1 4.0 0.0 13 147
+ 1.008 2 3 cbr 1000 ------- 0 2.0 3.0 127 155
- 1.008 2 3 cbr 1000 ------- 0 2.0 3.0 127 155
r 1.0088 2 3 cbr 1000 ------- 0 2.0 3.0 122 150
+ 1.012 2 3 cbr 1000 ------- 0 2.0 3.0 128 156
- 1.012 2 3 cbr 1000 ------- 0 2.0 3.0 128 156
r 1.012496 2 0 ack 40 ------- 1 4.0 0.0 8 141
+ 1.012496 0 2 tcp 1000 ------- 1 0.0 4.0 14 157
- 1.012496 0 2 tcp 1000 ------- 1 0.0 4.0 14 157
r 1.0128 2 3 cbr 1000 ------- 0 2.0 3.0 123 151
r 1.013296 2 0 ack 40 ------- 1 4.0 0.0 9 142
+ 1.013296 0 2 tcp 1000 ------- 1 0.0 4.0 15 158
- 1.013296 0 2 tcp 1000 ------- 1 0.0 4.0 15 158
r 1.014096 2 0 ack 40 ------- 1 4.0 0.0 10 143
+ 1.014096 0 2 tcp 1000 ------- 1 0.0 4.0 16 159
- 1.014096 0 2 tcp 1000 ------- 1 0.0 4.0 16 159
r 1.014896 2 0 ack 40 ------- 1 4.0 0.0 11 144
+ 1.014896 0 2 tcp 1000 ------- 1 0.0 4.0 17 160
- 1.014896 0 2 tcp 1000 ------- 1 0.0 4.0 17 160
r 1.015696 2 0 ack 40 ------- 1 4.0 0.0 12 145
+ 1.015696 0 2 tcp 1000 ------- 1 0.0 4.0 18 161
- 1.015696 0 2 tcp 1000 ------- 1 0.0 4.0 18 161
+ 1.016 2 3 cbr 1000 ------- 0 2.0 3.0 129 162
- 1.016 2 3 cbr 1000 ------- 0 2.0 3.0 129 162
r 1.0168 2 3 cbr 1000 ------- 0 2.0 3.0 124 152
r 1.017296 2 0 ack 40 ------- 1 4.0 0.0 13 147
+ 1.017296 0 2 tcp 1000 ------- 1 0.0 4.0 19 163
- 1.017296 0 2 tcp 1000 ------- 1 0.0 4.0 19 163
+ 1.02 2 3 cbr 1000 ------- 0 2.0 3.0 130 164
- 1.02 2 3 cbr 1000 ------- 0 2.0 3.0 130 164
r 1.0208 2 3 cbr 1000 ------- 0 2.0 3.0 125 153
r 1.023296 0 2 tcp 1000 ------- 1 0.0 4.0 14 157