+ 0.5 2 3 cbr 1000 ------- 0 2.0 3.0 0 0
- 0.5 2 3 cbr 1000 ------- 0 2.0 3.0 0 0
+ 0.500889 2 3 cbr 1000 ------- 0 2.0 3.0 1 1
- 0.500889 2 3 cbr 1000 ------- 0 2.0 3.0 1 1
+ 0.501778 2 3 cbr 1000 ------- 0 2.0 3.0 2 2
- 0.501778 2 3 cbr 1000 ------- 0 2.0 3.0 2 2
+ 0.502667 2 3 cbr 1000 ------- 0 2.0 3.0 3 3
- 0.502667 2 3 cbr 1000 ------- 0 2.0 3.0 3 3
+ 0.503556 2 3 cbr 1000 ------- 0 2.0 3.0 4 4
- 0.503556 2 3 cbr 1000 ------- 0 2.0 3.0 4 4
+ 0.504444 2 3 cbr 1000 ------- 0 2.0 3.0 5 5
- 0.504444 2 3 cbr 1000 ------- 0 2.0 3.0 5 5
+ 0.505333 2 3 cbr 1000 ------- 0 2.0 3.0 6 6
- 0.505333 2 3 cbr 1000 ------- 0 2.0 3.0 6 6
+ 0.506222 2 3 cbr 1000 ------- 0 2.0 3.0 7 7
- 0.506222 2 3 cbr 1000 ------- 0 2.0 3.0 7 7
+ 0.507111 2 3 cbr 1000 ------- 0 2.0 3.0 8 8
- 0.507111 2 3 cbr 1000 ------- 0 2.0 3.0 8 8
+ 0.508 2 3 cbr 1000 ------- 0 2.0 3.0 9 9
- 0.508 2 3 cbr 1000 ------- 0 2.0 3.0 9 9
+ 0.508889 2 3 cbr 1000 ------- 0 2.0 3.0 10 10
- 0.508889 2 3 cbr 1000 ------- 0 2.0 3.0 10 10
+ 0.509778 2 3 cbr 1000 ------- 0 2.0 3.0 11 11
- 0.509778 2 3 cbr 1000 ------- 0 2.0 3.0 11 11
+ 0.510667 2 3 cbr 1000 ------- 0 2.0 3.0 12 12
- 0.510667 2 3 cbr 1000 ------- 0 2.0 3.0 12 12
+ 0.511556 2 3 cbr 1000 ------- 0 2.0 3.0 13 13
- 0.511556 2 3 cbr 1000 ------- 0 2.0 3.0 13 13
+ 0.512444 2 3 cbr 1000 ------- 0 2.0 3.0 14 14
- 0.512444 2 3 cbr 1000 ------- 0 2.0 3.0 14 14
+ 0.513333 2 3 cbr 1000 ------- 0 2.0 3.0 15 15
- 0.513333 2 3 cbr 1000 ------- 0 2.0 3.0 15 15
+ 0.514222 2 3 cbr 1000 ------- 0 2.0 3.0 16 16
- 0.514222 2 3 cbr 1000 ------- 0 2.0 3.0 16 16
+ 0.515111 2 3 cbr 1000 ------- 0 2.0 3.0 17 17
- 0.515111 2 3 cbr 1000 ------- 0 2.0 3.0 17 17
+ 0.516 2 3 cbr 1000 ------- 0 2.0 3.0 18 18
- 0.516 2 3 cbr 1000 ------- 0 2.0 3.0 18 18
+ 0.516889 2 3 cbr 1000 ------- 0 2.0 3.0 19 19
- 0.516889 2 3 cbr 1000 ------- 0 2.0 3.0 19 19
+ 0.517778 2 3 cbr 1000 ------- 0 2.0 3.0 20 20
- 0.517778 2 3 cbr 1000 ------- 0 2.0 3.0 20 20
+ 0.518667 2 3 cbr 1000 ------- 0 2.0 3.0 21 21
- 0.518667 2 3 cbr 1000 ------- 0 2.0 3.0 21 21
+ 0.519556 2 3 cbr 1000 ------- 0 2.0 3.0 22 22
- 0.519556 2 3 cbr 1000 ------- 0 2.0 3.0 22 22
+ 0.520444 2 3 cbr 1000 ------- 0 2.0 3.0 23 23
- 0.520444 2 3 cbr 1000 ------- 0 2.0 3.0 23 23
r 0.5208 2 3 cbr 1000 ------- 0 2.0 3.0 0 0
+ 0.521333 2 3 cbr 1000 ------- 0 2.0 3.0 24 24
- 0.521333 2 3 cbr 1000 ------- 0 2.0 3.0 24 24
r 0.521689 2 3 cbr 1000 ------- 0 2.0 3.0 1 1
+ 0.522222 2 3 cbr 1000 ------- 0 2.0 3.0 25 25
- 0.522222 2 3 cbr 1000 ------- 0 2.0 3.0 25 25
r 0.522578 2 3 cbr 1000 ------- 0 2.0 3.0 2 2
+ 0.523111 2 3 cbr 1000 ------- 0 2.0 3.0 26 26
- 0.523111 2 3 cbr 1000 ------- 0 2.0 3.0 26 26
r 0.523467 2 3 cbr 1000 ------- 0 2.0 3.0 3 3
+ 0.524 2 3 cbr 1000 ------- 0 2.0 3.0 27 27
- 0.524 2 3 cbr 1000 ------- 0 2.0 3.0 27 27
r 0.524356 2 3 cbr 1000 ------- 0 2.0 3.0 4 4
+ 0.524889 2 3 cbr 1000 ------- 0 2.0 3.0 28 28
- 0.524889 2 3 cbr 1000 ------- 0 2.0 3.0 28 28
r 0.525244 2 3 cbr 1000 ------- 0 2.0 3.0 5 5
+ 0.525778 2 3 cbr 1000 ------- 0 2.0 3.0 29 29
- 0.525778 2 3 cbr 1000 ------- 0 2.0 3.0 29 29
r 0.526133 2 3 cbr 1000 ------- 0 2.0 3.0 6 6
+ 0.526667 2 3 cbr 1000 ------- 0 2.0 3.0 30 30
- 0.526667 2 3 cbr 1000 ------- 0 2.0 3.0 30 30
r 0.527022 2 3 cbr 1000 ------- 0 2.0 3.0 7 7
+ 0.527556 2 3 cbr 1000 ------- 0 2.0 3.0 31 31
- 0.527556 2 3 cbr 1000 ------- 0 2.0 3.0 31 31
r 0.527911 2 3 cbr 1000 ------- 0 2.0 3.0 8 8
+ 0.528444 2 3 cbr 1000 ------- 0 2.0 3.0 32 32
- 0.528444 2 3 cbr 1000 ------- 0 2.0 3.0 32 32
r 0.5288 2 3 cbr 1000 ------- 0 2.0 3.0 9 9
+ 0.529333 2 3 cbr 1000 ------- 0 2.0 3.0 33 33
- 0.529333 2 3 cbr 1000 ------- 0 2.0 3.0 33 33
r 0.529689 2 3 cbr 1000 ------- 0 2.0 3.0 10 10
+ 0.530222 2 3 cbr 1000 ------- 0 2.0 3.0 34 34
- 0.530222 2 3 cbr 1000 ------- 0 2.0 3.0 34 34
r 0.530578 2 3 cbr 1000 ------- 0 2.0 3.0 11 11
+ 0.531111 2 3 cbr 1000 ------- 0 2.0 3.0 35 35
- 0.531111 2 3 cbr 1000 ------- 0 2.0 3.0 35 35
r 0.531467 2 3 cbr 1000 ------- 0 2.0 3.0 12 12
+ 0.532 2 3 cbr 1000 ------- 0 2.0 3.0 36 36
- 0.532 2 3 cbr 1000 ------- 0 2.0 3.0 36 36
r 0.532356 2 3 cbr 1000 ------- 0 2.0 3.0 13 13
+ 0.532889 2 3 cbr 1000 ------- 0 2.0 3.0 37 37
- 0.532889 2 3 cbr 1000 ------- 0 2.0 3.0 37 37
r 0.533244 2 3 cbr 1000 ------- 0 2.0 3.0 14 14
+ 0.533778 2 3 cbr 1000 ------- 0 2.0 3.0 38 38
- 0.533778 2 3 cbr 1000 ------- 0 2.0 3.0 38 38
r 0.534133 2 3 cbr 1000 ------- 0 2.0 3.0 15 15
+ 0.534667 2 3 cbr 1000 ------- 0 2.0 3.0 39 39
- 0.534667 2 3 cbr 1000 ------- 0 2.0 3.0 39 39
r 0.535022 2 3 cbr 1000 ------- 0 2.0 3.0 16 16
+ 0.535556 2 3 cbr 1000 ------- 0 2.0 3.0 40 40
- 0.535556 2 3 cbr 1000 ------- 0 2.0 3.0 40 40
r 0.535911 2 3 cbr 1000 ------- 0 2.0 3.0 17 17
+ 0.536444 2 3 cbr 1000 ------- 0 2.0 3.0 41 41
- 0.536444 2 3 cbr 1000 ------- 0 2.0 3.0 41 41
r 0.5368 2 3 cbr 1000 ------- 0 2.0 3.0 18 18
+ 0.537333 2 3 cbr 1000 ------- 0 2.0 3.0 42 42
- 0.537333 2 3 cbr 1000 ------- 0 2.0 3.0 42 42
r 0.537689 2 3 cbr 1000 ------- 0 2.0 3.0 19 19
+ 0.538222 2 3 cbr 1000 ------- 0 2.0 3.0 43 43
- 0.538222 2 3 cbr 1000 ------- 0 2.0 3.0 43 43
r 0.538578 2 3 cbr 1000 ------- 0 2.0 3.0 20 20
+ 0.539111 2 3 cbr 1000 ------- 0 2.0 3.0 44 44
- 0.539111 2 3 cbr 1000 ------- 0 2.0 3.0 44 44
r 0.539467 2 3 cbr 1000 ------- 0 2.0 3.0 21 21
+ 0.54 2 3 cbr 1000 ------- 0 2.0 3.0 45 45
- 0.54 2 3 cbr 1000 ------- 0 2.0 3.0 45 45
r 0.540356 2 3 cbr 1000 ------- 0 2.0 3.0 22 22
+ 0.540889 2 3 cbr 1000 ------- 0 2.0 3.0 46 46
- 0.540889 2 3 cbr 1000 ------- 0 2.0 3.0 46 46
r 0.541244 2 3 cbr 1000 ------- 0 2.0 3.0 23 23
+ 0.541778 2 3 cbr 1000 ------- 0 2.0 3.0 47 47
- 0.541778 2 3 cbr 1000 ------- 0 2.0 3.0 47 47
r 0.542133 2 3 cbr 1000 ------- 0 2.0 3.0 24 24
+ 0.542667 2 3 cbr 1000 ------- 0 2.0 3.0 48 48
- 0.542667 2 3 cbr 1000 ------- 0 2.0 3.0 48 48
r 0.543022 2 3 cbr 1000 ------- 0 2.0 3.0 25 25
+ 0.543556 2 3 cbr 1000 ------- 0 2.0 3.0 49 49
- 0.543556 2 3 cbr 1000 ------- 0 2.0 3.0 49 49
r 0.543911 2 3 cbr 1000 ------- 0 2.0 3.0 26 26
+ 0.544444 2 3 cbr 1000 ------- 0 2.0 3.0 50 50
- 0.544444 2 3 cbr 1000 ------- 0 2.0 3.0 50 50
r 0.5448 2 3 cbr 1000 ------- 0 2.0 3.0 27 27
+ 0.545333 2 3 cbr 1000 ------- 0 2.0 3.0 51 51
- 0.545333 2 3 cbr 1000 ------- 0 2.0 3.0 51 51
r 0.545689 2 3 cbr 1000 ------- 0 2.0 3.0 28 28
+ 0.546222 2 3 cbr 1000 ------- 0 2.0 3.0 52 52
- 0.546222 2 3 cbr 1000 ------- 0 2.0 3.0 52 52
r 0.546578 2 3 cbr 1000 ------- 0 2.0 3.0 29 29
+ 0.547111 2 3 cbr 1000 ------- 0 2.0 3.0 53 53
- 0.547111 2 3 cbr 1000 ------- 0 2.0 3.0 53 53
r 0.547467 2 3 cbr 1000 ------- 0 2.0 3.0 30 30
+ 0.548 2 3 cbr 1000 ------- 0 2.0 3.0 54 54
- 0.548 2 3 cbr 1000 ------- 0 2.0 3.0 54 54
r 0.548356 2 3 cbr 1000 ------- 0 2.0 3.0 31 31
+ 0.548889 2 3 cbr 1000 ------- 0 2.0 3.0 55 55
- 0.548889 2 3 cbr 1000 ------- 0 2.0 3.0 55 55
r 0.549244 2 3 cbr 1000 ------- 0 2.0 3.0 32 32
+ 0.549778 2 3 cbr 1000 ------- 0 2.0 3.0 56 56
- 0.549778 2 3 cbr 1000 ------- 0 2.0 3.0 56 56
r 0.550133 2 3 cbr 1000 ------- 0 2.0 3.0 33 33
+ 0.550667 2 3 cbr 1000 ------- 0 2.0 3.0 57 57
- 0.550667 2 3 cbr 1000 ------- 0 2.0 3.0 57 57
r 0.551022 2 3 cbr 1000 ------- 0 2.0 3.0 34 34
+ 0.551556 2 3 cbr 1000 ------- 0 2.0 3.0 58 58
- 0.551556 2 3 cbr 1000 ------- 0 2.0 3.0 58 58
r 0.551911 2 3 cbr 1000 ------- 0 2.0 3.0 35 35
+ 0.552444 2 3 cbr 1000 ------- 0 2.0 3.0 59 59
- 0.552444 2 3 cbr 1000 ------- 0 2.0 3.0 59 59
r 0.5528 2 3 cbr 1000 ------- 0 2.0 3.0 36 36
+ 0.553333 2 3 cbr 1000 ------- 0 2.0 3.0 60 60
- 0.553333 2 3 cbr 1000 ------- 0 2.0 3.0 60 60
r 0.553689 2 3 cbr 1000 ------- 0 2.0 3.0 37 37
+ 0.554222 2 3 cbr 1000 ------- 0 2.0 3.0 61 61
- 0.554222 2 3 cbr 1000 ------- 0 2.0 3.0 61 61
r 0.554578 2 3 cbr 1000 ------- 0 2.0 3.0 38 38
+ 0.555111 2 3 cbr 1000 ------- 0 2.0 3.0 62 62
- 0.555111 2 3 cbr 1000 ------- 0 2.0 3.0 62 62
r 0.555467 2 3 cbr 1000 ------- 0 2.0 3.0 39 39
+ 0.556 2 3 cbr 1000 ------- 0 2.0 3.0 63 63
- 0.556 2 3 cbr 1000 ------- 0 2.0 3.0 63 63
r 0.556356 2 3 cbr 1000 ------- 0 2.0 3.0 40 40
+ 0.556889 2 3 cbr 1000 ------- 0 2.0 3.0 64 64
- 0.556889 2 3 cbr 1000 ------- 0 2.0 3.0 64 64
r 0.557244 2 3 cbr 1000 ------- 0 2.0 3.0 41 41
+ 0.557778 2 3 cbr 1000 ------- 0 2.0 3.0 65 65
- 0.557778 2 3 cbr 1000 ------- 0 2.0 3.0 65 65
r 0.558133 2 3 cbr 1000 ------- 0 2.0 3.0 42 42
+ 0.558667 2 3 cbr 1000 ------- 0 2.0 3.0 66 66
- 0.558667 2 3 cbr 1000 ------- 0 2.0 3.0 66 66
r 0.559022 2 3 cbr 1000 ------- 0 2.0 3.0 43 43
+ 0.559556 2 3 cbr 1000 ------- 0 2.0 3.0 67 67
- 0.559556 2 3 cbr 1000 ------- 0 2.0 3.0 67 67
r 0.559911 2 3 cbr 1000 ------- 0 2.0 3.0 44 44
+ 0.560444 2 3 cbr 1000 ------- 0 2.0 3.0 68 68
- 0.560444 2 3 cbr 1000 ------- 0 2.0 3.0 68 68
r 0.5608 2 3 cbr 1000 ------- 0 2.0 3.0 45 45
+ 0.561333 2 3 cbr 1000 ------- 0 2.0 3.0 69 69
- 0.561333 2 3 cbr 1000 ------- 0 2.0 3.0 69 69
r 0.561689 2 3 cbr 1000 ------- 0 2.0 3.0 46 46
+ 0.562222 2 3 cbr 1000 ------- 0 2.0 3.0 70 70
- 0.562222 2 3 cbr 1000 ------- 0 2.0 3.0 70 70
r 0.562578 2 3 cbr 1000 ------- 0 2.0 3.0 47 47
+ 0.563111 2 3 cbr 1000 ------- 0 2.0 3.0 71 71
- 0.563111 2 3 cbr 1000 ------- 0 2.0 3.0 71 71
r 0.563467 2 3 cbr 1000 ------- 0 2.0 3.0 48 48
+ 0.564 2 3 cbr 1000 ------- 0 2.0 3.0 72 72
- 0.564 2 3 cbr 1000 ------- 0 2.0 3.0 72 72
r 0.564356 2 3 cbr 1000 ------- 0 2.0 3.0 49 49
+ 0.564889 2 3 cbr 1000 ------- 0 2.0 3.0 73 73
- 0.564889 2 3 cbr 1000 ------- 0 2.0 3.0 73 73
r 0.565244 2 3 cbr 1000 ------- 0 2.0 3.0 50 50
+ 0.565778 2 3 cbr 1000 ------- 0 2.0 3.0 74 74
- 0.565778 2 3 cbr 1000 ------- 0 2.0 3.0 74 74
r 0.566133 2 3 cbr 1000 ------- 0 2.0 3.0 51 51
+ 0.566667 2 3 cbr 1000 ------- 0 2.0 3.0 75 75
- 0.566667 2 3 cbr 1000 ------- 0 2.0 3.0 75 75
r 0.567022 2 3 cbr 1000 ------- 0 2.0 3.0 52 52
+ 0.567556 2 3 cbr 1000 ------- 0 2.0 3.0 76 76
- 0.567556 2 3 cbr 1000 ------- 0 2.0 3.0 76 76
r 0.567911 2 3 cbr 1000 ------- 0 2.0 3.0 53 53
+ 0.568444 2 3 cbr 1000 ------- 0 2.0 3.0 77 77
- 0.568444 2 3 cbr 1000 ------- 0 2.0 3.0 77 77
r 0.5688 2 3 cbr 1000 ------- 0 2.0 3.0 54 54
+ 0.569333 2 3 cbr 1000 ------- 0 2.0 3.0 78 78
- 0.569333 2 3 cbr 1000 ------- 0 2.0 3.0 78 78
r 0.569689 2 3 cbr 1000 ------- 0 2.0 3.0 55 55
+ 0.570222 2 3 cbr 1000 ------- 0 2.0 3.0 79 79
- 0.570222 2 3 cbr 1000 ------- 0 2.0 3.0 79 79
r 0.570578 2 3 cbr 1000 ------- 0 2.0 3.0 56 56
+ 0.571111 2 3 cbr 1000 ------- 0 2.0 3.0 80 80
- 0.571111 2 3 cbr 1000 ------- 0 2.0 3.0 80 80
r 0.571467 2 3 cbr 1000 ------- 0 2.0 3.0 57 57
+ 0.572 2 3 cbr 1000 ------- 0 2.0 3.0 81 81
- 0.572 2 3 cbr 1000 ------- 0 2.0 3.0 81 81
r 0.572356 2 3 cbr 1000 ------- 0 2.0 3.0 58 58
+ 0.572889 2 3 cbr 1000 ------- 0 2.0 3.0 82 82
- 0.572889 2 3 cbr 1000 ------- 0 2.0 3.0 82 82
r 0.573244 2 3 cbr 1000 ------- 0 2.0 3.0 59 59
+ 0.573778 2 3 cbr 1000 ------- 0 2.0 3.0 83 83
- 0.573778 2 3 cbr 1000 ------- 0 2.0 3.0 83 83
r 0.574133 2 3 cbr 1000 ------- 0 2.0 3.0 60 60
+ 0.574667 2 3 cbr 1000 ------- 0 2.0 3.0 84 84
- 0.574667 2 3 cbr 1000 ------- 0 2.0 3.0 84 84
r 0.575022 2 3 cbr 1000 ------- 0 2.0 3.0 61 61
+ 0.575556 2 3 cbr 1000 ------- 0 2.0 3.0 85 85
- 0.575556 2 3 cbr 1000 ------- 0 2.0 3.0 85 85
r 0.575911 2 3 cbr 1000 ------- 0 2.0 3.0 62 62
+ 0.576444 2 3 cbr 1000 ------- 0 2.0 3.0 86 86
- 0.576444 2 3 cbr 1000 ------- 0 2.0 3.0 86 86
r 0.5768 2 3 cbr 1000 ------- 0 2.0 3.0 63 63
+ 0.577333 2 3 cbr 1000 ------- 0 2.0 3.0 87 87
- 0.577333 2 3 cbr 1000 ------- 0 2.0 3.0 87 87
r 0.577689 2 3 cbr 1000 ------- 0 2.0 3.0 64 64
+ 0.578222 2 3 cbr 1000 ------- 0 2.0 3.0 88 88
- 0.578222 2 3 cbr 1000 ------- 0 2.0 3.0 88 88
r 0.578578 2 3 cbr 1000 ------- 0 2.0 3.0 65 65
+ 0.579111 2 3 cbr 1000 ------- 0 2.0 3.0 89 89
- 0.579111 2 3 cbr 1000 ------- 0 2.0 3.0 89 89
r 0.579467 2 3 cbr 1000 ------- 0 2.0 3.0 66 66
+ 0.58 2 3 cbr 1000 ------- 0 2.0 3.0 90 90
- 0.58 2 3 cbr 1000 ------- 0 2.0 3.0 90 90
r 0.580356 2 3 cbr 1000 ------- 0 2.0 3.0 67 67
+ 0.580889 2 3 cbr 1000 ------- 0 2.0 3.0 91 91
- 0.580889 2 3 cbr 1000 ------- 0 2.0 3.0 91 91
r 0.581244 2 3 cbr 1000 ------- 0 2.0 3.0 68 68
+ 0.581778 2 3 cbr 1000 ------- 0 2.0 3.0 92 92
- 0.581778 2 3 cbr 1000 ------- 0 2.0 3.0 92 92
r 0.582133 2 3 cbr 1000 ------- 0 2.0 3.0 69 69
+ 0.582667 2 3 cbr 1000 ------- 0 2.0 3.0 93 93
- 0.582667 2 3 cbr 1000 ------- 0 2.0 3.0 93 93
r 0.583022 2 3 cbr 1000 ------- 0 2.0 3.0 70 70
+ 0.583556 2 3 cbr 1000 ------- 0 2.0 3.0 94 94
- 0.583556 2 3 cbr 1000 ------- 0 2.0 3.0 94 94
r 0.583911 2 3 cbr 1000 ------- 0 2.0 3.0 71 71
+ 0.584444 2 3 cbr 1000 ------- 0 2.0 3.0 95 95
- 0.584444 2 3 cbr 1000 ------- 0 2.0 3.0 95 95
r 0.5848 2 3 cbr 1000 ------- 0 2.0 3.0 72 72
+ 0.585333 2 3 cbr 1000 ------- 0 2.0 3.0 96 96
- 0.585333 2 3 cbr 1000 ------- 0 2.0 3.0 96 96
r 0.585689 2 3 cbr 1000 ------- 0 2.0 3.0 73 73
+ 0.586222 2 3 cbr 1000 ------- 0 2.0 3.0 97 97
- 0.586222 2 3 cbr 1000 ------- 0 2.0 3.0 97 97
r 0.586578 2 3 cbr 1000 ------- 0 2.0 3.0 74 74
+ 0.587111 2 3 cbr 1000 ------- 0 2.0 3.0 98 98
- 0.587111 2 3 cbr 1000 ------- 0 2.0 3.0 98 98
r 0.587467 2 3 cbr 1000 ------- 0 2.0 3.0 75 75
+ 0.588 2 3 cbr 1000 ------- 0 2.0 3.0 99 99
- 0.588 2 3 cbr 1000 ------- 0 2.0 3.0 99 99
r 0.588356 2 3 cbr 1000 ------- 0 2.0 3.0 76 76
+ 0.588889 2 3 cbr 1000 ------- 0 2.0 3.0 100 100
- 0.588889 2 3 cbr 1000 ------- 0 2.0 3.0 100 100
r 0.589244 2 3 cbr 1000 ------- 0 2.0 3.0 77 77
+ 0.589778 2 3 cbr 1000 ------- 0 2.0 3.0 101 101
- 0.589778 2 3 cbr 1000 ------- 0 2.0 3.0 101 101
r 0.590133 2 3 cbr 1000 ------- 0 2.0 3.0 78 78
+ 0.590667 2 3 cbr 1000 ------- 0 2.0 3.0 102 102
- 0.590667 2 3 cbr 1000 ------- 0 2.0 3.0 102 102
r 0.591022 2 3 cbr 1000 ------- 0 2.0 3.0 79 79
+ 0.591556 2 3 cbr 1000 ------- 0 2.0 3.0 103 103
- 0.591556 2 3 cbr 1000 ------- 0 2.0 3.0 103 103
r 0.591911 2 3 cbr 1000 ------- 0 2.0 3.0 80 80
+ 0.592444 2 3 cbr 1000 ------- 0 2.0 3.0 104 104
- 0.592444 2 3 cbr 1000 ------- 0 2.0 3.0 104 104
r 0.5928 2 3 cbr 1000 ------- 0 2.0 3.0 81 81
+ 0.593333 2 3 cbr 1000 ------- 0 2.0 3.0 105 105
- 0.593333 2 3 cbr 1000 ------- 0 2.0 3.0 105 105
r 0.593689 2 3 cbr 1000 ------- 0 2.0 3.0 82 82
+ 0.594222 2 3 cbr 1000 ------- 0 2.0 3.0 106 106
- 0.594222 2 3 cbr 1000 ------- 0 2.0 3.0 106 106
r 0.594578 2 3 cbr 1000 ------- 0 2.0 3.0 83 83
+ 0.595111 2 3 cbr 1000 ------- 0 2.0 3.0 107 107
- 0.595111 2 3 cbr 1000 ------- 0 2.0 3.0 107 107
r 0.595467 2 3 cbr 1000 ------- 0 2.0 3.0 84 84
+ 0.596 2 3 cbr 1000 ------- 0 2.0 3.0 108 108
- 0.596 2 3 cbr 1000 ------- 0 2.0 3.0 108 108
r 0.596356 2 3 cbr 1000 ------- 0 2.0 3.0 85 85
+ 0.596889 2 3 cbr 1000 ------- 0 2.0 3.0 109 109
- 0.596889 2 3 cbr 1000 ------- 0 2.0 3.0 109 109
r 0.597244 2 3 cbr 1000 ------- 0 2.0 3.0 86 86
+ 0.597778 2 3 cbr 1000 ------- 0 2.0 3.0 110 110
- 0.597778 2 3 cbr 1000 ------- 0 2.0 3.0 110 110
r 0.598133 2 3 cbr 1000 ------- 0 2.0 3.0 87 87
+ 0.598667 2 3 cbr 1000 ------- 0 2.0 3.0 111 111
- 0.598667 2 3 cbr 1000 ------- 0 2.0 3.0 111 111
r 0.599022 2 3 cbr 1000 ------- 0 2.0 3.0 88 88
+ 0.599556 2 3 cbr 1000 ------- 0 2.0 3.0 112 112
- 0.599556 2 3 cbr 1000 ------- 0 2.0 3.0 112 112
r 0.599911 2 3 cbr 1000 ------- 0 2.0 3.0 89 89
+ 0.6 0 2 tcp 1000 ------- 1 0.0 4.0 0 113
- 0.6 0 2 tcp 1000 ------- 1 0.0 4.0 0 113
+ 0.600444 2 3 cbr 1000 ------- 0 2.0 3.0 113 114
- 0.600444 2 3 cbr 1000 ------- 0 2.0 3.0 113 114
r 0.6008 2 3 cbr 1000 ------- 0 2.0 3.0 90 90
+ 0.601333 2 3 cbr 1000 ------- 0 2.0 3.0 114 115
- 0.601333 2 3 cbr 1000 ------- 0 2.0 3.0 114 115
r 0.601689 2 3 cbr 1000 ------- 0 2.0 3.0 91 91
+ 0.602222 2 3 cbr 1000 ------- 0 2.0 3.0 115 116
- 0.602222 2 3 cbr 1000 ------- 0 2.0 3.0 115 116
r 0.602578 2 3 cbr 1000 ------- 0 2.0 3.0 92 92
+ 0.603111 2 3 cbr 1000 ------- 0 2.0 3.0 116 117
- 0.603111 2 3 cbr 1000 ------- 0 2.0 3.0 116 117
r 0.603467 2 3 cbr 1000 ------- 0 2.0 3.0 93 93
+ 0.604 2 3 cbr 1000 ------- 0 2.0 3.0 117 118
- 0.604 2 3 cbr 1000 ------- 0 2.0 3.0 117 118
r 0.604356 2 3 cbr 1000 ------- 0 2.0 3.0 94 94
+ 0.604889 2 3 cbr 1000 ------- 0 2.0 3.0 118 119
- 0.604889 2 3 cbr 1000 ------- 0 2.0 3.0 118 119
r 0.605244 2 3 cbr 1000 ------- 0 2.0 3.0 95 95
+ 0.605778 2 3 cbr 1000 ------- 0 2.0 3.0 119 120
- 0.605778 2 3 cbr 1000 ------- 0 2.0 3.0 119 120
r 0.606133 2 3 cbr 1000 ------- 0 2.0 3.0 96 96
+ 0.606667 2 3 cbr 1000 ------- 0 2.0 3.0 120 121
- 0.606667 2 3 cbr 1000 ------- 0 2.0 3.0 120 121
r 0.607022 2 3 cbr 1000 ------- 0 2.0 3.0 97 97
+ 0.607556 2 3 cbr 1000 ------- 0 2.0 3.0 121 122
- 0.607556 2 3 cbr 1000 ------- 0 2.0 3.0 121 122
r 0.607911 2 3 cbr 1000 ------- 0 2.0 3.0 98 98
+ 0.608444 2 3 cbr 1000 ------- 0 2.0 3.0 122 123
- 0.608444 2 3 cbr 1000 ------- 0 2.0 3.0 122 123
r 0.6088 2 3 cbr 1000 ------- 0 2.0 3.0 99 99
+ 0.609333 2 3 cbr 1000 ------- 0 2.0 3.0 123 124
- 0.609333 2 3 cbr 1000 ------- 0 2.0 3.0 123 124
r 0.609689 2 3 cbr 1000 ------- 0 2.0 3.0 100 100
+ 0.610222 2 3 cbr 1000 ------- 0 2.0 3.0 124 125
- 0.610222 2 3 cbr 1000 ------- 0 2.0 3.0 124 125
r 0.610578 2 3 cbr 1000 ------- 0 2.0 3.0 101 101
r 0.6108 0 2 tcp 1000 ------- 1 0.0 4.0 0 113
+ 0.6108 2 3 tcp 1000 ------- 1 0.0 4.0 0 113
- 0.611022 2 3 tcp 1000 ------- 1 0.0 4.0 0 113
+ 0.611111 2 3 cbr 1000 ------- 0 2.0 3.0 125 126
r 0.611467 2 3 cbr 1000 ------- 0 2.0 3.0 102 102
- 0.611822 2 3 cbr 1000 ------- 0 2.0 3.0 125 126
+ 0.612 2 3 cbr 1000 ------- 0 2.0 3.0 126 127
r 0.612356 2 3 cbr 1000 ------- 0 2.0 3.0 103 103
- 0.612622 2 3 cbr 1000 ------- 0 2.0 3.0 126 127
+ 0.612889 2 3 cbr 1000 ------- 0 2.0 3.0 127 128
r 0.613244 2 3 cbr 1000 ------- 0 2.0 3.0 104 104
- 0.613422 2 3 cbr 1000 ------- 0 2.0 3.0 127 128
+ 0.613778 2 3 cbr 1000 ------- 0 2.0 3.0 128 129
r 0.614133 2 3 cbr 1000 ------- 0 2.0 3.0 105 105
- 0.614222 2 3 cbr 1000 ------- 0 2.0 3.0 128 129
+ 0.614667 2 3 cbr 1000 ------- 0 2.0 3.0 129 130
r 0.615022 2 3 cbr 1000 ------- 0 2.0 3.0 106 106
- 0.615022 2 3 cbr 1000 ------- 0 2.0 3.0 129 130
+ 0.615556 2 3 cbr 1000 ------- 0 2.0 3.0 130 131
- 0.615822 2 3 cbr 1000 ------- 0 2.0 3.0 130 131
r 0.615911 2 3 cbr 1000 ------- 0 2.0 3.0 107 107
+ 0.616444 2 3 cbr 1000 ------- 0 2.0 3.0 131 132
- 0.616622 2 3 cbr 1000 ------- 0 2.0 3.0 131 132
r 0.6168 2 3 cbr 1000 ------- 0 2.0 3.0 108 108
+ 0.617333 2 3 cbr 1000 ------- 0 2.0 3.0 132 133
- 0.617422 2 3 cbr 1000 ------- 0 2.0 3.0 132 133
r 0.617689 2 3 cbr 1000 ------- 0 2.0 3.0 109 109
+ 0.618222 2 3 cbr 1000 ------- 0 2.0 3.0 133 134
- 0.618222 2 3 cbr 1000 ------- 0 2.0 3.0 133 134
r 0.618578 2 3 cbr 1000 ------- 0 2.0 3.0 110 110
+ 0.619111 2 3 cbr 1000 ------- 0 2.0 3.0 134 135
- 0.619111 2 3 cbr 1000 ------- 0 2.0 3.0 134 135
r 0.619467 2 3 cbr 1000 ------- 0 2.0 3.0 111 111
+ 0.62 2 3 cbr 1000 ------- 0 2.0 3.0 135 136
- 0.62 2 3 cbr 1000 ------- 0 2.0 3.0 135 136
r 0.620356 2 3 cbr 1000 ------- 0 2.0 3.0 112 112
+ 0.620889 2 3 cbr 1000 ------- 0 2.0 3.0 136 137
- 0.620889 2 3 cbr 1000 ------- 0 2.0 3.0 136 137
r 0.621244 2 3 cbr 1000 ------- 0 2.0 3.0 113 114
+ 0.621778 2 3 cbr 1000 ------- 0 2.0 3.0 137 138
- 0.621778 2 3 cbr 1000 ------- 0 2.0 3.0 137 138
r 0.622133 2 3 cbr 1000 ------- 0 2.0 3.0 114 115
+ 0.622667 2 3 cbr 1000 ------- 0 2.0 3.0 138 139
- 0.622667 2 3 cbr 1000 ------- 0 2.0 3.0 138 139
r 0.623022 2 3 cbr 1000 ------- 0 2.0 3.0 115 116
+ 0.623556 2 3 cbr 1000 ------- 0 2.0 3.0 139 140
- 0.623556 2 3 cbr 1000 ------- 0 2.0 3.0 139 140
r 0.623911 2 3 cbr 1000 ------- 0 2.0 3.0 116 117
+ 0.624444 2 3 cbr 1000 ------- 0 2.0 3.0 140 141
- 0.624444 2 3 cbr 1000 ------- 0 2.0 3.0 140 141
r 0.6248 2 3 cbr 1000 ------- 0 2.0 3.0 117 118
+ 0.625333 2 3 cbr 1000 ------- 0 2.0 3.0 141 142
- 0.625333 2 3 cbr 1000 ------- 0 2.0 3.0 141 142
r 0.625689 2 3 cbr 1000 ------- 0 2.0 3.0 118 119
+ 0.626222 2 3 cbr 1000 ------- 0 2.0 3.0 142 143
- 0.626222 2 3 cbr 1000 ------- 0 2.0 3.0 142 143
r 0.626578 2 3 cbr 1000 ------- 0 2.0 3.0 119 120
+ 0.627111 2 3 cbr 1000 ------- 0 2.0 3.0 143 144
- 0.627111 2 3 cbr 1000 ------- 0 2.0 3.0 143 144
r 0.627467 2 3 cbr 1000 ------- 0 2.0 3.0 120 121
+ 0.628 2 3 cbr 1000 ------- 0 2.0 3.0 144 145
- 0.628 2 3 cbr 1000 ------- 0 2.0 3.0 144 145
r 0.628356 2 3 cbr 1000 ------- 0 2.0 3.0 121 122
+ 0.628889 2 3 cbr 1000 ------- 0 2.0 3.0 145 146
- 0.628889 2 3 cbr 1000 ------- 0 2.0 3.0 145 146
r 0.629244 2 3 cbr 1000 ------- 0 2.0 3.0 122 123
+ 0.629778 2 3 cbr 1000 ------- 0 2.0 3.0 146 147
- 0.629778 2 3 cbr 1000 ------- 0 2.0 3.0 146 147
r 0.630133 2 3 cbr 1000 ------- 0 2.0 3.0 123 124
+ 0.630667 2 3 cbr 1000 ------- 0 2.0 3.0 147 148
- 0.630667 2 3 cbr 1000 ------- 0 2.0 3.0 147 148
r 0.631022 2 3 cbr 1000 ------- 0 2.0 3.0 124 125
+ 0.631556 2 3 cbr 1000 ------- 0 2.0 3.0 148 149
- 0.631556 2 3 cbr 1000 ------- 0 2.0 3.0 148 149
r 0.631822 2 3 tcp 1000 ------- 1 0.0 4.0 0 113
+ 0.631822 3 4 tcp 1000 ------- 1 0.0 4.0 0 113
- 0.631822 3 4 tcp 1000 ------- 1 0.0 4.0 0 113
+ 0.632444 2 3 cbr 1000 ------- 0 2.0 3.0 149 150
- 0.632444 2 3 cbr 1000 ------- 0 2.0 3.0 149 150
r 0.632622 2 3 cbr 1000 ------- 0 2.0 3.0 125 126
+ 0.633333 2 3 cbr 1000 ------- 0 2.0 3.0 150 151
- 0.633333 2 3 cbr 1000 ------- 0 2.0 3.0 150 151
r 0.633422 2 3 cbr 1000 ------- 0 2.0 3.0 126 127
r 0.634222 2 3 cbr 1000 ------- 0 2.0 3.0 127 128
+ 0.634222 2 3 cbr 1000 ------- 0 2.0 3.0 151 152
- 0.634222 2 3 cbr 1000 ------- 0 2.0 3.0 151 152
r 0.635022 2 3 cbr 1000 ------- 0 2.0 3.0 128 129
+ 0.635111 2 3 cbr 1000 ------- 0 2.0 3.0 152 153
- 0.635111 2 3 cbr 1000 ------- 0 2.0 3.0 152 153
r 0.635822 2 3 cbr 1000 ------- 0 2.0 3.0 129 130
+ 0.636 2 3 cbr 1000 ------- 0 2.0 3.0 153 154
- 0.636 2 3 cbr 1000 ------- 0 2.0 3.0 153 154
r 0.636622 2 3 cbr 1000 ------- 0 2.0 3.0 130 131
+ 0.636889 2 3 cbr 1000 ------- 0 2.0 3.0 154 155
- 0.636889 2 3 cbr 1000 ------- 0 2.0 3.0 154 155
r 0.637422 2 3 cbr 1000 ------- 0 2.0 3.0 131 132
+ 0.637778 2 3 cbr 1000 ------- 0 2.0 3.0 155 156
- 0.637778 2 3 cbr 1000 ------- 0 2.0 3.0 155 156
r 0.638222 2 3 cbr 1000 ------- 0 2.0 3.0 132 133
+ 0.638667 2 3 cbr 1000 ------- 0 2.0 3.0 156 157
- 0.638667 2 3 cbr 1000 ------- 0 2.0 3.0 156 157
r 0.639022 2 3 cbr 1000 ------- 0 2.0 3.0 133 134
+ 0.639556 2 3 cbr 1000 ------- 0 2.0 3.0 157 158
- 0.639556 2 3 cbr 1000 ------- 0 2.0 3.0 157 158
r 0.639911 2 3 cbr 1000 ------- 0 2.0 3.0 134 135
+ 0.640444 2 3 cbr 1000 ------- 0 2.0 3.0 158 159
- 0.640444 2 3 cbr 1000 ------- 0 2.0 3.0 158 159
r 0.6408 2 3 cbr 1000 ------- 0 2.0 3.0 135 136
+ 0.641333 2 3 cbr 1000 ------- 0 2.0 3.0 159 160
- 0.641333 2 3 cbr 1000 ------- 0 2.0 3.0 159 160
r 0.641689 2 3 cbr 1000 ------- 0 2.0 3.0 136 137
+ 0.642222 2 3 cbr 1000 ------- 0 2.0 3.0 160 161
- 0.642222 2 3 cbr 1000 ------- 0 2.0 3.0 160 161
r 0.642578 2 3 cbr 1000 ------- 0 2.0 3.0 137 138
r 0.642622 3 4 tcp 1000 ------- 1 0.0 4.0 0 113
+ 0.642622 4 3 ack 40 ------- 1 4.0 0.0 0 162
- 0.642622 4 3 ack 40 ------- 1 4.0 0.0 0 162
+ 0.643111 2 3 cbr 1000 ------- 0 2.0 3.0 161 163
- 0.643111 2 3 cbr 1000 ------- 0 2.0 3.0 161 163
r 0.643467 2 3 cbr 1000 ------- 0 2.0 3.0 138 139
+ 0.644 2 3 cbr 1000 ------- 0 2.0 3.0 162 164
- 0.644 2 3 cbr 1000 ------- 0 2.0 3.0 162 164
r 0.644356 2 3 cbr 1000 ------- 0 2.0 3.0 139 140
+ 0.644889 2 3 cbr 1000 ------- 0 2.0 3.0 163 165
- 0.644889 2 3 cbr 1000 ------- 0 2.0 3.0 163 165
r 0.645244 2 3 cbr 1000 ------- 0 2.0 3.0 140 141
+ 0.645778 2 3 cbr 1000 ------- 0 2.0 3.0 164 166
- 0.645778 2 3 cbr 1000 ------- 0 2.0 3.0 164 166
r 0.646133 2 3 cbr 1000 ------- 0 2.0 3.0 141 142
+ 0.646667 2 3 cbr 1000 ------- 0 2.0 3.0 165 167
- 0.646667 2 3 cbr 1000 ------- 0 2.0 3.0 165 167
r 0.647022 2 3 cbr 1000 ------- 0 2.0 3.0 142 143
+ 0.647556 2 3 cbr 1000 ------- 0 2.0 3.0 166 168
- 0.647556 2 3 cbr 1000 ------- 0 2.0 3.0 166 168
r 0.647911 2 3 cbr 1000 ------- 0 2.0 3.0 143 144
+ 0.648444 2 3 cbr 1000 ------- 0 2.0 3.0 167 169
- 0.648444 2 3 cbr 1000 ------- 0 2.0 3.0 167 169
r 0.6488 2 3 cbr 1000 ------- 0 2.0 3.0 144 145
+ 0.649333 2 3 cbr 1000 ------- 0 2.0 3.0 168 170
- 0.649333 2 3 cbr 1000 ------- 0 2.0 3.0 168 170
r 0.649689 2 3 cbr 1000 ------- 0 2.0 3.0 145 146
+ 0.650222 2 3 cbr 1000 ------- 0 2.0 3.0 169 171
- 0.650222 2 3 cbr 1000 ------- 0 2.0 3.0 169 171
r 0.650578 2 3 cbr 1000 ------- 0 2.0 3.0 146 147
+ 0.651111 2 3 cbr 1000 ------- 0 2.0 3.0 170 172
- 0.651111 2 3 cbr 1000 ------- 0 2.0 3.0 170 172
r 0.651467 2 3 cbr 1000 ------- 0 2.0 3.0 147 148
+ 0.652 2 3 cbr 1000 ------- 0 2.0 3.0 171 173
- 0.652 2 3 cbr 1000 ------- 0 2.0 3.0 171 173
r 0.652356 2 3 cbr 1000 ------- 0 2.0 3.0 148 149
r 0.652654 4 3 ack 40 ------- 1 4.0 0.0 0 162
+ 0.652654 3 2 ack 40 ------- 1 4.0 0.0 0 162
- 0.652654 3 2 ack 40 ------- 1 4.0 0.0 0 162
+ 0.652889 2 3 cbr 1000 ------- 0 2.0 3.0 172 174
- 0.652889 2 3 cbr 1000 ------- 0 2.0 3.0 172 174
r 0.653244 2 3 cbr 1000 ------- 0 2.0 3.0 149 150
+ 0.653778 2 3 cbr 1000 ------- 0 2.0 3.0 173 175
- 0.653778 2 3 cbr 1000 ------- 0 2.0 3.0 173 175
r 0.654133 2 3 cbr 1000 ------- 0 2.0 3.0 150 151
+ 0.654667 2 3 cbr 1000 ------- 0 2.0 3.0 174 176
- 0.654667 2 3 cbr 1000 ------- 0 2.0 3.0 174 176
r 0.655022 2 3 cbr 1000 ------- 0 2.0 3.0 151 152
+ 0.655556 2 3 cbr 1000 ------- 0 2.0 3.0 175 177
- 0.655556 2 3 cbr 1000 ------- 0 2.0 3.0 175 177
r 0.655911 2 3 cbr 1000 ------- 0 2.0 3.0 152 153
+ 0.656444 2 3 cbr 1000 ------- 0 2.0 3.0 176 178
- 0.656444 2 3 cbr 1000 ------- 0 2.0 3.0 176 178
r 0.6568 2 3 cbr 1000 ------- 0 2.0 3.0 153 154
+ 0.657333 2 3 cbr 1000 ------- 0 2.0 3.0 177 179
- 0.657333 2 3 cbr 1000 ------- 0 2.0 3.0 177 179
r 0.657689 2 3 cbr 1000 ------- 0 2.0 3.0 154 155
+ 0.658222 2 3 cbr 1000 ------- 0 2.0 3.0 178 180
- 0.658222 2 3 cbr 1000 ------- 0 2.0 3.0 178 180
r 0.658578 2 3 cbr 1000 ------- 0 2.0 3.0 155 156
+ 0.659111 2 3 cbr 1000 ------- 0 2.0 3.0 179 181
- 0.659111 2 3 cbr 1000 ------- 0 2.0 3.0 179 181
r 0.659467 2 3 cbr 1000 ------- 0 2.0 3.0 156 157
+ 0.66 2 3 cbr 1000 ------- 0 2.0 3.0 180 182
- 0.66 2 3 cbr 1000 ------- 0 2.0 3.0 180 182
r 0.660356 2 3 cbr 1000 ------- 0 2.0 3.0 157 158
+ 0.660889 2 3 cbr 1000 ------- 0 2.0 3.0 181 183
- 0.660889 2 3 cbr 1000 ------- 0 2.0 3.0 181 183
r 0.661244 2 3 cbr 1000 ------- 0 2.0 3.0 158 159
+ 0.661778 2 3 cbr 1000 ------- 0 2.0 3.0 182 184
- 0.661778 2 3 cbr 1000 ------- 0 2.0 3.0 182 184
r 0.662133 2 3 cbr 1000 ------- 0 2.0 3.0 159 160
+ 0.662667 2 3 cbr 1000 ------- 0 2.0 3.0 183 185
- 0.662667 2 3 cbr 1000 ------- 0 2.0 3.0 183 185
r 0.663022 2 3 cbr 1000 ------- 0 2.0 3.0 160 161
+ 0.663556 2 3 cbr 1000 ------- 0 2.0 3.0 184 186
- 0.663556 2 3 cbr 1000 ------- 0 2.0 3.0 184 186
r 0.663911 2 3 cbr 1000 ------- 0 2.0 3.0 161 163
+ 0.664444 2 3 cbr 1000 ------- 0 2.0 3.0 185 187
- 0.664444 2 3 cbr 1000 ------- 0 2.0 3.0 185 187
r 0.6648 2 3 cbr 1000 ------- 0 2.0 3.0 162 164
+ 0.665333 2 3 cbr 1000 ------- 0 2.0 3.0 186 188
- 0.665333 2 3 cbr 1000 ------- 0 2.0 3.0 186 188
r 0.665689 2 3 cbr 1000 ------- 0 2.0 3.0 163 165
+ 0.666222 2 3 cbr 1000 ------- 0 2.0 3.0 187 189
- 0.666222 2 3 cbr 1000 ------- 0 2.0 3.0 187 189
r 0.666578 2 3 cbr 1000 ------- 0 2.0 3.0 164 166
+ 0.667111 2 3 cbr 1000 ------- 0 2.0 3.0 188 190
- 0.667111 2 3 cbr 1000 ------- 0 2.0 3.0 188 190
r 0.667467 2 3 cbr 1000 ------- 0 2.0 3.0 165 167
+ 0.668 2 3 cbr 1000 ------- 0 2.0 3.0 189 191
- 0.668 2 3 cbr 1000 ------- 0 2.0 3.0 189 191
r 0.668356 2 3 cbr 1000 ------- 0 2.0 3.0 166 168
+ 0.668889 2 3 cbr 1000 ------- 0 2.0 3.0 190 192
- 0.668889 2 3 cbr 1000 ------- 0 2.0 3.0 190 192
r 0.669244 2 3 cbr 1000 ------- 0 2.0 3.0 167 169
+ 0.669778 2 3 cbr 1000 ------- 0 2.0 3.0 191 193
- 0.669778 2 3 cbr 1000 ------- 0 2.0 3.0 191 193
r 0.670133 2 3 cbr 1000 ------- 0 2.0 3.0 168 170
+ 0.670667 2 3 cbr 1000 ------- 0 2.0 3.0 192 194
- 0.670667 2 3 cbr 1000 ------- 0 2.0 3.0 192 194
r 0.671022 2 3 cbr 1000 ------- 0 2.0 3.0 169 171
+ 0.671556 2 3 cbr 1000 ------- 0 2.0 3.0 193 195
- 0.671556 2 3 cbr 1000 ------- 0 2.0 3.0 193 195
r 0.671911 2 3 cbr 1000 ------- 0 2.0 3.0 170 172
+ 0.672444 2 3 cbr 1000 ------- 0 2.0 3.0 194 196
- 0.672444 2 3 cbr 1000 ------- 0 2.0 3.0 194 196
r 0.672686 3 2 ack 40 ------- 1 4.0 0.0 0 162
+ 0.672686 2 0 ack 40 ------- 1 4.0 0.0 0 162
- 0.672686 2 0 ack 40 ------- 1 4.0 0.0 0 162
r 0.6728 2 3 cbr 1000 ------- 0 2.0 3.0 171 173
+ 0.673333 2 3 cbr 1000 ------- 0 2.0 3.0 195 197
- 0.673333 2 3 cbr 1000 ------- 0 2.0 3.0 195 197
r 0.673689 2 3 cbr 1000 ------- 0 2.0 3.0 172 174
+ 0.674222 2 3 cbr 1000 ------- 0 2.0 3.0 196 198
- 0.674222 2 3 cbr 1000 ------- 0 2.0 3.0 196 198
r 0.674578 2 3 cbr 1000 ------- 0 2.0 3.0 173 175
+ 0.675111 2 3 cbr 1000 ------- 0 2.0 3.0 197 199
- 0.675111 2 3 cbr 1000 ------- 0 2.0 3.0 197 199
r 0.675467 2 3 cbr 1000 ------- 0 2.0 3.0 174 176
+ 0.676 2 3 cbr 1000 ------- 0 2.0 3.0 198 200
- 0.676 2 3 cbr 1000 ------- 0 2.0 3.0 198 200
r 0.676356 2 3 cbr 1000 ------- 0 2.0 3.0 175 177
+ 0.676889 2 3 cbr 1000 ------- 0 2.0 3.0 199 201
- 0.676889 2 3 cbr 1000 ------- 0 2.0 3.0 199 201
r 0.677244 2 3 cbr 1000 ------- 0 2.0 3.0 176 178
+ 0.677778 2 3 cbr 1000 ------- 0 2.0 3.0 200 202
- 0.677778 2 3 cbr 1000 ------- 0 2.0 3.0 200 202
r 0.678133 2 3 cbr 1000 ------- 0 2.0 3.0 177 179
+ 0.678667 2 3 cbr 1000 ------- 0 2.0 3.0 201 203
- 0.678667 2 3 cbr 1000 ------- 0 2.0 3.0 201 203
r 0.679022 2 3 cbr 1000 ------- 0 2.0 3.0 178 180
+ 0.679556 2 3 cbr 1000 ------- 0 2.0 3.0 202 204
- 0.679556 2 3 cbr 1000 ------- 0 2.0 3.0 202 204
r 0.679911 2 3 cbr 1000 ------- 0 2.0 3.0 179 181
+ 0.680444 2 3 cbr 1000 ------- 0 2.0 3.0 203 205
- 0.680444 2 3 cbr 1000 ------- 0 2.0 3.0 203 205
r 0.6808 2 3 cbr 1000 ------- 0 2.0 3.0 180 182
+ 0.681333 2 3 cbr 1000 ------- 0 2.0 3.0 204 206
- 0.681333 2 3 cbr 1000 ------- 0 2.0 3.0 204 206
r 0.681689 2 3 cbr 1000 ------- 0 2.0 3.0 181 183
+ 0.682222 2 3 cbr 1000 ------- 0 2.0 3.0 205 207
- 0.682222 2 3 cbr 1000 ------- 0 2.0 3.0 205 207
r 0.682578 2 3 cbr 1000 ------- 0 2.0 3.0 182 184
r 0.682718 2 0 ack 40 ------- 1 4.0 0.0 0 162
+ 0.682718 0 2 tcp 1000 ------- 1 0.0 4.0 1 208
- 0.682718 0 2 tcp 1000 ------- 1 0.0 4.0 1 208
+ 0.683111 2 3 cbr 1000 ------- 0 2.0 3.0 206 209
- 0.683111 2 3 cbr 1000 ------- 0 2.0 3.0 206 209
r 0.683467 2 3 cbr 1000 ------- 0 2.0 3.0 183 185