+ 0.5 2 3 cbr 1000 ------- 0 2.0 3.0 0 0
- 0.5 2 3 cbr 1000 ------- 0 2.0 3.0 0 0
+ 0.508 2 3 cbr 1000 ------- 0 2.0 3.0 1 1
- 0.508 2 3 cbr 1000 ------- 0 2.0 3.0 1 1
+ 0.516 2 3 cbr 1000 ------- 0 2.0 3.0 2 2
- 0.516 2 3 cbr 1000 ------- 0 2.0 3.0 2 2
r 0.5208 2 3 cbr 1000 ------- 0 2.0 3.0 0 0
+ 0.524 2 3 cbr 1000 ------- 0 2.0 3.0 3 3
- 0.524 2 3 cbr 1000 ------- 0 2.0 3.0 3 3
r 0.5288 2 3 cbr 1000 ------- 0 2.0 3.0 1 1
+ 0.532 2 3 cbr 1000 ------- 0 2.0 3.0 4 4
- 0.532 2 3 cbr 1000 ------- 0 2.0 3.0 4 4
r 0.5368 2 3 cbr 1000 ------- 0 2.0 3.0 2 2
+ 0.54 2 3 cbr 1000 ------- 0 2.0 3.0 5 5
- 0.54 2 3 cbr 1000 ------- 0 2.0 3.0 5 5
r 0.5448 2 3 cbr 1000 ------- 0 2.0 3.0 3 3
+ 0.548 2 3 cbr 1000 ------- 0 2.0 3.0 6 6
- 0.548 2 3 cbr 1000 ------- 0 2.0 3.0 6 6
r 0.5528 2 3 cbr 1000 ------- 0 2.0 3.0 4 4
+ 0.556 2 3 cbr 1000 ------- 0 2.0 3.0 7 7
- 0.556 2 3 cbr 1000 ------- 0 2.0 3.0 7 7
r 0.5608 2 3 cbr 1000 ------- 0 2.0 3.0 5 5
+ 0.564 2 3 cbr 1000 ------- 0 2.0 3.0 8 8
- 0.564 2 3 cbr 1000 ------- 0 2.0 3.0 8 8
r 0.5688 2 3 cbr 1000 ------- 0 2.0 3.0 6 6
+ 0.572 2 3 cbr 1000 ------- 0 2.0 3.0 9 9
- 0.572 2 3 cbr 1000 ------- 0 2.0 3.0 9 9
r 0.5768 2 3 cbr 1000 ------- 0 2.0 3.0 7 7
+ 0.58 2 3 cbr 1000 ------- 0 2.0 3.0 10 10
- 0.58 2 3 cbr 1000 ------- 0 2.0 3.0 10 10
r 0.5848 2 3 cbr 1000 ------- 0 2.0 3.0 8 8
+ 0.588 2 3 cbr 1000 ------- 0 2.0 3.0 11 11
- 0.588 2 3 cbr 1000 ------- 0 2.0 3.0 11 11
r 0.5928 2 3 cbr 1000 ------- 0 2.0 3.0 9 9
+ 0.596 2 3 cbr 1000 ------- 0 2.0 3.0 12 12
- 0.596 2 3 cbr 1000 ------- 0 2.0 3.0 12 12
+ 0.6 0 2 tcp 1000 ------- 1 0.0 4.0 0 13
- 0.6 0 2 tcp 1000 ------- 1 0.0 4.0 0 13
r 0.6008 2 3 cbr 1000 ------- 0 2.0 3.0 10 10
+ 0.604 2 3 cbr 1000 ------- 0 2.0 3.0 13 14
- 0.604 2 3 cbr 1000 ------- 0 2.0 3.0 13 14
r 0.6088 2 3 cbr 1000 ------- 0 2.0 3.0 11 11
r 0.6108 0 2 tcp 1000 ------- 1 0.0 4.0 0 13
+ 0.6108 2 3 tcp 1000 ------- 1 0.0 4.0 0 13
- 0.6108 2 3 tcp 1000 ------- 1 0.0 4.0 0 13
+ 0.612 2 3 cbr 1000 ------- 0 2.0 3.0 14 15
- 0.612 2 3 cbr 1000 ------- 0 2.0 3.0 14 15
r 0.6168 2 3 cbr 1000 ------- 0 2.0 3.0 12 12
+ 0.62 2 3 cbr 1000 ------- 0 2.0 3.0 15 16
- 0.62 2 3 cbr 1000 ------- 0 2.0 3.0 15 16
r 0.6248 2 3 cbr 1000 ------- 0 2.0 3.0 13 14
+ 0.628 2 3 cbr 1000 ------- 0 2.0 3.0 16 17
- 0.628 2 3 cbr 1000 ------- 0 2.0 3.0 16 17
r 0.6316 2 3 tcp 1000 ------- 1 0.0 4.0 0 13
+ 0.6316 3 4 tcp 1000 ------- 1 0.0 4.0 0 13
- 0.6316 3 4 tcp 1000 ------- 1 0.0 4.0 0 13
r 0.6328 2 3 cbr 1000 ------- 0 2.0 3.0 14 15
+ 0.636 2 3 cbr 1000 ------- 0 2.0 3.0 17 18
- 0.636 2 3 cbr 1000 ------- 0 2.0 3.0 17 18
r 0.6408 2 3 cbr 1000 ------- 0 2.0 3.0 15 16
r 0.6424 3 4 tcp 1000 ------- 1 0.0 4.0 0 13
+ 0.6424 4 3 ack 40 ------- 1 4.0 0.0 0 19
- 0.6424 4 3 ack 40 ------- 1 4.0 0.0 0 19
+ 0.644 2 3 cbr 1000 ------- 0 2.0 3.0 18 20
- 0.644 2 3 cbr 1000 ------- 0 2.0 3.0 18 20
r 0.6488 2 3 cbr 1000 ------- 0 2.0 3.0 16 17
+ 0.652 2 3 cbr 1000 ------- 0 2.0 3.0 19 21
- 0.652 2 3 cbr 1000 ------- 0 2.0 3.0 19 21
r 0.652432 4 3 ack 40 ------- 1 4.0 0.0 0 19
+ 0.652432 3 2 ack 40 ------- 1 4.0 0.0 0 19
- 0.652432 3 2 ack 40 ------- 1 4.0 0.0 0 19
r 0.6568 2 3 cbr 1000 ------- 0 2.0 3.0 17 18
+ 0.66 2 3 cbr 1000 ------- 0 2.0 3.0 20 22
- 0.66 2 3 cbr 1000 ------- 0 2.0 3.0 20 22
r 0.6648 2 3 cbr 1000 ------- 0 2.0 3.0 18 20
+ 0.668 2 3 cbr 1000 ------- 0 2.0 3.0 21 23
- 0.668 2 3 cbr 1000 ------- 0 2.0 3.0 21 23
r 0.672464 3 2 ack 40 ------- 1 4.0 0.0 0 19
+ 0.672464 2 0 ack 40 ------- 1 4.0 0.0 0 19
- 0.672464 2 0 ack 40 ------- 1 4.0 0.0 0 19
r 0.6728 2 3 cbr 1000 ------- 0 2.0 3.0 19 21
+ 0.676 2 3 cbr 1000 ------- 0 2.0 3.0 22 24
- 0.676 2 3 cbr 1000 ------- 0 2.0 3.0 22 24
r 0.6808 2 3 cbr 1000 ------- 0 2.0 3.0 20 22
r 0.682496 2 0 ack 40 ------- 1 4.0 0.0 0 19
+ 0.682496 0 2 tcp 1000 ------- 1 0.0 4.0 1 25
- 0.682496 0 2 tcp 1000 ------- 1 0.0 4.0 1 25
+ 0.684 2 3 cbr 1000 ------- 0 2.0 3.0 23 26
- 0.684 2 3 cbr 1000 ------- 0 2.0 3.0 23 26
r 0.6888 2 3 cbr 1000 ------- 0 2.0 3.0 21 23
+ 0.692 2 3 cbr 1000 ------- 0 2.0 3.0 24 27
- 0.692 2 3 cbr 1000 ------- 0 2.0 3.0 24 27
r 0.693296 0 2 tcp 1000 ------- 1 0.0 4.0 1 25
+ 0.693296 2 3 tcp 1000 ------- 1 0.0 4.0 1 25
- 0.693296 2 3 tcp 1000 ------- 1 0.0 4.0 1 25
r 0.6968 2 3 cbr 1000 ------- 0 2.0 3.0 22 24
+ 0.7 2 3 cbr 1000 ------- 0 2.0 3.0 25 28
- 0.7 2 3 cbr 1000 ------- 0 2.0 3.0 25 28
r 0.7048 2 3 cbr 1000 ------- 0 2.0 3.0 23 26
+ 0.708 2 3 cbr 1000 ------- 0 2.0 3.0 26 29
- 0.708 2 3 cbr 1000 ------- 0 2.0 3.0 26 29
r 0.7128 2 3 cbr 1000 ------- 0 2.0 3.0 24 27
r 0.714096 2 3 tcp 1000 ------- 1 0.0 4.0 1 25
+ 0.714096 3 4 tcp 1000 ------- 1 0.0 4.0 1 25
- 0.714096 3 4 tcp 1000 ------- 1 0.0 4.0 1 25
+ 0.716 2 3 cbr 1000 ------- 0 2.0 3.0 27 30
- 0.716 2 3 cbr 1000 ------- 0 2.0 3.0 27 30
r 0.7208 2 3 cbr 1000 ------- 0 2.0 3.0 25 28
+ 0.724 2 3 cbr 1000 ------- 0 2.0 3.0 28 31
- 0.724 2 3 cbr 1000 ------- 0 2.0 3.0 28 31
r 0.724896 3 4 tcp 1000 ------- 1 0.0 4.0 1 25
+ 0.724896 4 3 ack 40 ------- 1 4.0 0.0 1 32
- 0.724896 4 3 ack 40 ------- 1 4.0 0.0 1 32
r 0.7288 2 3 cbr 1000 ------- 0 2.0 3.0 26 29
+ 0.732 2 3 cbr 1000 ------- 0 2.0 3.0 29 33
- 0.732 2 3 cbr 1000 ------- 0 2.0 3.0 29 33
r 0.734928 4 3 ack 40 ------- 1 4.0 0.0 1 32
+ 0.734928 3 2 ack 40 ------- 1 4.0 0.0 1 32
- 0.734928 3 2 ack 40 ------- 1 4.0 0.0 1 32
r 0.7368 2 3 cbr 1000 ------- 0 2.0 3.0 27 30
+ 0.74 2 3 cbr 1000 ------- 0 2.0 3.0 30 34
- 0.74 2 3 cbr 1000 ------- 0 2.0 3.0 30 34
r 0.7448 2 3 cbr 1000 ------- 0 2.0 3.0 28 31
+ 0.748 2 3 cbr 1000 ------- 0 2.0 3.0 31 35
- 0.748 2 3 cbr 1000 ------- 0 2.0 3.0 31 35
r 0.7528 2 3 cbr 1000 ------- 0 2.0 3.0 29 33
r 0.75496 3 2 ack 40 ------- 1 4.0 0.0 1 32
+ 0.75496 2 0 ack 40 ------- 1 4.0 0.0 1 32
- 0.75496 2 0 ack 40 ------- 1 4.0 0.0 1 32
+ 0.756 2 3 cbr 1000 ------- 0 2.0 3.0 32 36
- 0.756 2 3 cbr 1000 ------- 0 2.0 3.0 32 36
r 0.7608 2 3 cbr 1000 ------- 0 2.0 3.0 30 34
+ 0.764 2 3 cbr 1000 ------- 0 2.0 3.0 33 37
- 0.764 2 3 cbr 1000 ------- 0 2.0 3.0 33 37
r 0.764992 2 0 ack 40 ------- 1 4.0 0.0 1 32
+ 0.764992 0 2 tcp 1000 ------- 1 0.0 4.0 2 38
- 0.764992 0 2 tcp 1000 ------- 1 0.0 4.0 2 38
+ 0.764992 0 2 tcp 1000 ------- 1 0.0 4.0 3 39
+ 0.764992 0 2 tcp 1000 ------- 1 0.0 4.0 4 40
- 0.765792 0 2 tcp 1000 ------- 1 0.0 4.0 3 39
- 0.766592 0 2 tcp 1000 ------- 1 0.0 4.0 4 40
r 0.7688 2 3 cbr 1000 ------- 0 2.0 3.0 31 35
+ 0.772 2 3 cbr 1000 ------- 0 2.0 3.0 34 41
- 0.772 2 3 cbr 1000 ------- 0 2.0 3.0 34 41
r 0.775792 0 2 tcp 1000 ------- 1 0.0 4.0 2 38
+ 0.775792 2 3 tcp 1000 ------- 1 0.0 4.0 2 38
- 0.775792 2 3 tcp 1000 ------- 1 0.0 4.0 2 38
r 0.776592 0 2 tcp 1000 ------- 1 0.0 4.0 3 39
+ 0.776592 2 3 tcp 1000 ------- 1 0.0 4.0 3 39
- 0.776592 2 3 tcp 1000 ------- 1 0.0 4.0 3 39
r 0.7768 2 3 cbr 1000 ------- 0 2.0 3.0 32 36
r 0.777392 0 2 tcp 1000 ------- 1 0.0 4.0 4 40
+ 0.777392 2 3 tcp 1000 ------- 1 0.0 4.0 4 40
- 0.777392 2 3 tcp 1000 ------- 1 0.0 4.0 4 40
+ 0.78 2 3 cbr 1000 ------- 0 2.0 3.0 35 42
- 0.78 2 3 cbr 1000 ------- 0 2.0 3.0 35 42
r 0.7848 2 3 cbr 1000 ------- 0 2.0 3.0 33 37
+ 0.788 2 3 cbr 1000 ------- 0 2.0 3.0 36 43
- 0.788 2 3 cbr 1000 ------- 0 2.0 3.0 36 43
r 0.7928 2 3 cbr 1000 ------- 0 2.0 3.0 34 41
+ 0.796 2 3 cbr 1000 ------- 0 2.0 3.0 37 44
- 0.796 2 3 cbr 1000 ------- 0 2.0 3.0 37 44
r 0.796592 2 3 tcp 1000 ------- 1 0.0 4.0 2 38
+ 0.796592 3 4 tcp 1000 ------- 1 0.0 4.0 2 38
- 0.796592 3 4 tcp 1000 ------- 1 0.0 4.0 2 38
r 0.797392 2 3 tcp 1000 ------- 1 0.0 4.0 3 39
+ 0.797392 3 4 tcp 1000 ------- 1 0.0 4.0 3 39
- 0.797392 3 4 tcp 1000 ------- 1 0.0 4.0 3 39
r 0.798192 2 3 tcp 1000 ------- 1 0.0 4.0 4 40
+ 0.798192 3 4 tcp 1000 ------- 1 0.0 4.0 4 40
- 0.798192 3 4 tcp 1000 ------- 1 0.0 4.0 4 40
r 0.8008 2 3 cbr 1000 ------- 0 2.0 3.0 35 42
+ 0.804 2 3 cbr 1000 ------- 0 2.0 3.0 38 45
- 0.804 2 3 cbr 1000 ------- 0 2.0 3.0 38 45
r 0.807392 3 4 tcp 1000 ------- 1 0.0 4.0 2 38
+ 0.807392 4 3 ack 40 ------- 1 4.0 0.0 2 46
- 0.807392 4 3 ack 40 ------- 1 4.0 0.0 2 46
r 0.808192 3 4 tcp 1000 ------- 1 0.0 4.0 3 39
+ 0.808192 4 3 ack 40 ------- 1 4.0 0.0 3 47
- 0.808192 4 3 ack 40 ------- 1 4.0 0.0 3 47
r 0.8088 2 3 cbr 1000 ------- 0 2.0 3.0 36 43
r 0.808992 3 4 tcp 1000 ------- 1 0.0 4.0 4 40
+ 0.808992 4 3 ack 40 ------- 1 4.0 0.0 4 48
- 0.808992 4 3 ack 40 ------- 1 4.0 0.0 4 48
+ 0.812 2 3 cbr 1000 ------- 0 2.0 3.0 39 49
- 0.812 2 3 cbr 1000 ------- 0 2.0 3.0 39 49
r 0.8168 2 3 cbr 1000 ------- 0 2.0 3.0 37 44
r 0.817424 4 3 ack 40 ------- 1 4.0 0.0 2 46
+ 0.817424 3 2 ack 40 ------- 1 4.0 0.0 2 46
- 0.817424 3 2 ack 40 ------- 1 4.0 0.0 2 46
r 0.818224 4 3 ack 40 ------- 1 4.0 0.0 3 47
+ 0.818224 3 2 ack 40 ------- 1 4.0 0.0 3 47
- 0.818224 3 2 ack 40 ------- 1 4.0 0.0 3 47
r 0.819024 4 3 ack 40 ------- 1 4.0 0.0 4 48
+ 0.819024 3 2 ack 40 ------- 1 4.0 0.0 4 48
- 0.819024 3 2 ack 40 ------- 1 4.0 0.0 4 48
+ 0.82 2 3 cbr 1000 ------- 0 2.0 3.0 40 50
- 0.82 2 3 cbr 1000 ------- 0 2.0 3.0 40 50
r 0.8248 2 3 cbr 1000 ------- 0 2.0 3.0 38 45
+ 0.828 2 3 cbr 1000 ------- 0 2.0 3.0 41 51
- 0.828 2 3 cbr 1000 ------- 0 2.0 3.0 41 51
r 0.8328 2 3 cbr 1000 ------- 0 2.0 3.0 39 49
+ 0.836 2 3 cbr 1000 ------- 0 2.0 3.0 42 52
- 0.836 2 3 cbr 1000 ------- 0 2.0 3.0 42 52
r 0.837456 3 2 ack 40 ------- 1 4.0 0.0 2 46
+ 0.837456 2 0 ack 40 ------- 1 4.0 0.0 2 46
- 0.837456 2 0 ack 40 ------- 1 4.0 0.0 2 46
r 0.838256 3 2 ack 40 ------- 1 4.0 0.0 3 47
+ 0.838256 2 0 ack 40 ------- 1 4.0 0.0 3 47
- 0.838256 2 0 ack 40 ------- 1 4.0 0.0 3 47
r 0.839056 3 2 ack 40 ------- 1 4.0 0.0 4 48
+ 0.839056 2 0 ack 40 ------- 1 4.0 0.0 4 48
- 0.839056 2 0 ack 40 ------- 1 4.0 0.0 4 48
r 0.8408 2 3 cbr 1000 ------- 0 2.0 3.0 40 50
+ 0.844 2 3 cbr 1000 ------- 0 2.0 3.0 43 53
- 0.844 2 3 cbr 1000 ------- 0 2.0 3.0 43 53
r 0.847488 2 0 ack 40 ------- 1 4.0 0.0 2 46
+ 0.847488 0 2 tcp 1000 ------- 1 0.0 4.0 5 54
- 0.847488 0 2 tcp 1000 ------- 1 0.0 4.0 5 54
r 0.848288 2 0 ack 40 ------- 1 4.0 0.0 3 47
+ 0.848288 0 2 tcp 1000 ------- 1 0.0 4.0 6 55
- 0.848288 0 2 tcp 1000 ------- 1 0.0 4.0 6 55
r 0.8488 2 3 cbr 1000 ------- 0 2.0 3.0 41 51
r 0.849088 2 0 ack 40 ------- 1 4.0 0.0 4 48
+ 0.849088 0 2 tcp 1000 ------- 1 0.0 4.0 7 56
- 0.849088 0 2 tcp 1000 ------- 1 0.0 4.0 7 56
+ 0.852 2 3 cbr 1000 ------- 0 2.0 3.0 44 57
- 0.852 2 3 cbr 1000 ------- 0 2.0 3.0 44 57
r 0.8568 2 3 cbr 1000 ------- 0 2.0 3.0 42 52
r 0.858288 0 2 tcp 1000 ------- 1 0.0 4.0 5 54
+ 0.858288 2 3 tcp 1000 ------- 1 0.0 4.0 5 54
- 0.858288 2 3 tcp 1000 ------- 1 0.0 4.0 5 54
r 0.859088 0 2 tcp 1000 ------- 1 0.0 4.0 6 55
+ 0.859088 2 3 tcp 1000 ------- 1 0.0 4.0 6 55
- 0.859088 2 3 tcp 1000 ------- 1 0.0 4.0 6 55
r 0.859888 0 2 tcp 1000 ------- 1 0.0 4.0 7 56
+ 0.859888 2 3 tcp 1000 ------- 1 0.0 4.0 7 56
- 0.859888 2 3 tcp 1000 ------- 1 0.0 4.0 7 56
+ 0.86 2 3 cbr 1000 ------- 0 2.0 3.0 45 58
- 0.860688 2 3 cbr 1000 ------- 0 2.0 3.0 45 58
r 0.8648 2 3 cbr 1000 ------- 0 2.0 3.0 43 53
+ 0.868 2 3 cbr 1000 ------- 0 2.0 3.0 46 59
- 0.868 2 3 cbr 1000 ------- 0 2.0 3.0 46 59
r 0.8728 2 3 cbr 1000 ------- 0 2.0 3.0 44 57
+ 0.876 2 3 cbr 1000 ------- 0 2.0 3.0 47 60
- 0.876 2 3 cbr 1000 ------- 0 2.0 3.0 47 60
r 0.879088 2 3 tcp 1000 ------- 1 0.0 4.0 5 54
+ 0.879088 3 4 tcp 1000 ------- 1 0.0 4.0 5 54
- 0.879088 3 4 tcp 1000 ------- 1 0.0 4.0 5 54
r 0.879888 2 3 tcp 1000 ------- 1 0.0 4.0 6 55
+ 0.879888 3 4 tcp 1000 ------- 1 0.0 4.0 6 55
- 0.879888 3 4 tcp 1000 ------- 1 0.0 4.0 6 55
r 0.880688 2 3 tcp 1000 ------- 1 0.0 4.0 7 56
+ 0.880688 3 4 tcp 1000 ------- 1 0.0 4.0 7 56
- 0.880688 3 4 tcp 1000 ------- 1 0.0 4.0 7 56
r 0.881488 2 3 cbr 1000 ------- 0 2.0 3.0 45 58
+ 0.884 2 3 cbr 1000 ------- 0 2.0 3.0 48 61
- 0.884 2 3 cbr 1000 ------- 0 2.0 3.0 48 61
r 0.8888 2 3 cbr 1000 ------- 0 2.0 3.0 46 59
r 0.889888 3 4 tcp 1000 ------- 1 0.0 4.0 5 54
+ 0.889888 4 3 ack 40 ------- 1 4.0 0.0 5 62
- 0.889888 4 3 ack 40 ------- 1 4.0 0.0 5 62
r 0.890688 3 4 tcp 1000 ------- 1 0.0 4.0 6 55
+ 0.890688 4 3 ack 40 ------- 1 4.0 0.0 6 63
- 0.890688 4 3 ack 40 ------- 1 4.0 0.0 6 63
r 0.891488 3 4 tcp 1000 ------- 1 0.0 4.0 7 56
+ 0.891488 4 3 ack 40 ------- 1 4.0 0.0 7 64
- 0.891488 4 3 ack 40 ------- 1 4.0 0.0 7 64
+ 0.892 2 3 cbr 1000 ------- 0 2.0 3.0 49 65
- 0.892 2 3 cbr 1000 ------- 0 2.0 3.0 49 65
r 0.8968 2 3 cbr 1000 ------- 0 2.0 3.0 47 60
r 0.89992 4 3 ack 40 ------- 1 4.0 0.0 5 62
+ 0.89992 3 2 ack 40 ------- 1 4.0 0.0 5 62
- 0.89992 3 2 ack 40 ------- 1 4.0 0.0 5 62
+ 0.9 2 3 cbr 1000 ------- 0 2.0 3.0 50 66
- 0.9 2 3 cbr 1000 ------- 0 2.0 3.0 50 66
r 0.90072 4 3 ack 40 ------- 1 4.0 0.0 6 63
+ 0.90072 3 2 ack 40 ------- 1 4.0 0.0 6 63
- 0.90072 3 2 ack 40 ------- 1 4.0 0.0 6 63
r 0.90152 4 3 ack 40 ------- 1 4.0 0.0 7 64
+ 0.90152 3 2 ack 40 ------- 1 4.0 0.0 7 64
- 0.90152 3 2 ack 40 ------- 1 4.0 0.0 7 64
r 0.9048 2 3 cbr 1000 ------- 0 2.0 3.0 48 61
+ 0.908 2 3 cbr 1000 ------- 0 2.0 3.0 51 67
- 0.908 2 3 cbr 1000 ------- 0 2.0 3.0 51 67
r 0.9128 2 3 cbr 1000 ------- 0 2.0 3.0 49 65
+ 0.916 2 3 cbr 1000 ------- 0 2.0 3.0 52 68
- 0.916 2 3 cbr 1000 ------- 0 2.0 3.0 52 68
r 0.919952 3 2 ack 40 ------- 1 4.0 0.0 5 62
+ 0.919952 2 0 ack 40 ------- 1 4.0 0.0 5 62
- 0.919952 2 0 ack 40 ------- 1 4.0 0.0 5 62
r 0.920752 3 2 ack 40 ------- 1 4.0 0.0 6 63
+ 0.920752 2 0 ack 40 ------- 1 4.0 0.0 6 63
- 0.920752 2 0 ack 40 ------- 1 4.0 0.0 6 63
r 0.9208 2 3 cbr 1000 ------- 0 2.0 3.0 50 66
r 0.921552 3 2 ack 40 ------- 1 4.0 0.0 7 64
+ 0.921552 2 0 ack 40 ------- 1 4.0 0.0 7 64
- 0.921552 2 0 ack 40 ------- 1 4.0 0.0 7 64
+ 0.924 2 3 cbr 1000 ------- 0 2.0 3.0 53 69
- 0.924 2 3 cbr 1000 ------- 0 2.0 3.0 53 69
r 0.9288 2 3 cbr 1000 ------- 0 2.0 3.0 51 67
r 0.929984 2 0 ack 40 ------- 1 4.0 0.0 5 62
+ 0.929984 0 2 tcp 1000 ------- 1 0.0 4.0 8 70
- 0.929984 0 2 tcp 1000 ------- 1 0.0 4.0 8 70
+ 0.929984 0 2 tcp 1000 ------- 1 0.0 4.0 9 71
r 0.930784 2 0 ack 40 ------- 1 4.0 0.0 6 63
+ 0.930784 0 2 tcp 1000 ------- 1 0.0 4.0 10 72
+ 0.930784 0 2 tcp 1000 ------- 1 0.0 4.0 11 73
- 0.930784 0 2 tcp 1000 ------- 1 0.0 4.0 9 71
r 0.931584 2 0 ack 40 ------- 1 4.0 0.0 7 64
+ 0.931584 0 2 tcp 1000 ------- 1 0.0 4.0 12 74
+ 0.931584 0 2 tcp 1000 ------- 1 0.0 4.0 13 75
- 0.931584 0 2 tcp 1000 ------- 1 0.0 4.0 10 72
+ 0.932 2 3 cbr 1000 ------- 0 2.0 3.0 54 76
- 0.932 2 3 cbr 1000 ------- 0 2.0 3.0 54 76
- 0.932384 0 2 tcp 1000 ------- 1 0.0 4.0 11 73
- 0.933184 0 2 tcp 1000 ------- 1 0.0 4.0 12 74
- 0.933984 0 2 tcp 1000 ------- 1 0.0 4.0 13 75
r 0.9368 2 3 cbr 1000 ------- 0 2.0 3.0 52 68
+ 0.94 2 3 cbr 1000 ------- 0 2.0 3.0 55 77
- 0.94 2 3 cbr 1000 ------- 0 2.0 3.0 55 77
r 0.940784 0 2 tcp 1000 ------- 1 0.0 4.0 8 70
+ 0.940784 2 3 tcp 1000 ------- 1 0.0 4.0 8 70
- 0.9408 2 3 tcp 1000 ------- 1 0.0 4.0 8 70
r 0.941584 0 2 tcp 1000 ------- 1 0.0 4.0 9 71
+ 0.941584 2 3 tcp 1000 ------- 1 0.0 4.0 9 71
- 0.9416 2 3 tcp 1000 ------- 1 0.0 4.0 9 71
r 0.942384 0 2 tcp 1000 ------- 1 0.0 4.0 10 72
+ 0.942384 2 3 tcp 1000 ------- 1 0.0 4.0 10 72
- 0.9424 2 3 tcp 1000 ------- 1 0.0 4.0 10 72
r 0.943184 0 2 tcp 1000 ------- 1 0.0 4.0 11 73
+ 0.943184 2 3 tcp 1000 ------- 1 0.0 4.0 11 73
- 0.9432 2 3 tcp 1000 ------- 1 0.0 4.0 11 73
r 0.943984 0 2 tcp 1000 ------- 1 0.0 4.0 12 74
+ 0.943984 2 3 tcp 1000 ------- 1 0.0 4.0 12 74
- 0.944 2 3 tcp 1000 ------- 1 0.0 4.0 12 74
r 0.944784 0 2 tcp 1000 ------- 1 0.0 4.0 13 75
+ 0.944784 2 3 tcp 1000 ------- 1 0.0 4.0 13 75
r 0.9448 2 3 cbr 1000 ------- 0 2.0 3.0 53 69
- 0.9448 2 3 tcp 1000 ------- 1 0.0 4.0 13 75
+ 0.948 2 3 cbr 1000 ------- 0 2.0 3.0 56 78
- 0.948 2 3 cbr 1000 ------- 0 2.0 3.0 56 78
r 0.9528 2 3 cbr 1000 ------- 0 2.0 3.0 54 76
+ 0.956 2 3 cbr 1000 ------- 0 2.0 3.0 57 79
- 0.956 2 3 cbr 1000 ------- 0 2.0 3.0 57 79
r 0.9608 2 3 cbr 1000 ------- 0 2.0 3.0 55 77
r 0.9616 2 3 tcp 1000 ------- 1 0.0 4.0 8 70
+ 0.9616 3 4 tcp 1000 ------- 1 0.0 4.0 8 70
- 0.9616 3 4 tcp 1000 ------- 1 0.0 4.0 8 70
r 0.9624 2 3 tcp 1000 ------- 1 0.0 4.0 9 71
+ 0.9624 3 4 tcp 1000 ------- 1 0.0 4.0 9 71
- 0.9624 3 4 tcp 1000 ------- 1 0.0 4.0 9 71
r 0.9632 2 3 tcp 1000 ------- 1 0.0 4.0 10 72
+ 0.9632 3 4 tcp 1000 ------- 1 0.0 4.0 10 72
- 0.9632 3 4 tcp 1000 ------- 1 0.0 4.0 10 72
+ 0.964 2 3 cbr 1000 ------- 0 2.0 3.0 58 80
- 0.964 2 3 cbr 1000 ------- 0 2.0 3.0 58 80
r 0.964 2 3 tcp 1000 ------- 1 0.0 4.0 11 73
+ 0.964 3 4 tcp 1000 ------- 1 0.0 4.0 11 73
- 0.964 3 4 tcp 1000 ------- 1 0.0 4.0 11 73
r 0.9648 2 3 tcp 1000 ------- 1 0.0 4.0 12 74
+ 0.9648 3 4 tcp 1000 ------- 1 0.0 4.0 12 74
- 0.9648 3 4 tcp 1000 ------- 1 0.0 4.0 12 74
r 0.9656 2 3 tcp 1000 ------- 1 0.0 4.0 13 75
+ 0.9656 3 4 tcp 1000 ------- 1 0.0 4.0 13 75
- 0.9656 3 4 tcp 1000 ------- 1 0.0 4.0 13 75
r 0.9688 2 3 cbr 1000 ------- 0 2.0 3.0 56 78
+ 0.972 2 3 cbr 1000 ------- 0 2.0 3.0 59 81
- 0.972 2 3 cbr 1000 ------- 0 2.0 3.0 59 81
r 0.9724 3 4 tcp 1000 ------- 1 0.0 4.0 8 70
+ 0.9724 4 3 ack 40 ------- 1 4.0 0.0 8 82
- 0.9724 4 3 ack 40 ------- 1 4.0 0.0 8 82
r 0.9732 3 4 tcp 1000 ------- 1 0.0 4.0 9 71
+ 0.9732 4 3 ack 40 ------- 1 4.0 0.0 9 83
- 0.9732 4 3 ack 40 ------- 1 4.0 0.0 9 83
r 0.974 3 4 tcp 1000 ------- 1 0.0 4.0 10 72
+ 0.974 4 3 ack 40 ------- 1 4.0 0.0 10 84
- 0.974 4 3 ack 40 ------- 1 4.0 0.0 10 84
r 0.9748 3 4 tcp 1000 ------- 1 0.0 4.0 11 73
+ 0.9748 4 3 ack 40 ------- 1 4.0 0.0 11 85
- 0.9748 4 3 ack 40 ------- 1 4.0 0.0 11 85
r 0.9756 3 4 tcp 1000 ------- 1 0.0 4.0 12 74
+ 0.9756 4 3 ack 40 ------- 1 4.0 0.0 12 86
- 0.9756 4 3 ack 40 ------- 1 4.0 0.0 12 86
r 0.9764 3 4 tcp 1000 ------- 1 0.0 4.0 13 75
+ 0.9764 4 3 ack 40 ------- 1 4.0 0.0 13 87
- 0.9764 4 3 ack 40 ------- 1 4.0 0.0 13 87
r 0.9768 2 3 cbr 1000 ------- 0 2.0 3.0 57 79
+ 0.98 2 3 cbr 1000 ------- 0 2.0 3.0 60 88
- 0.98 2 3 cbr 1000 ------- 0 2.0 3.0 60 88
r 0.982432 4 3 ack 40 ------- 1 4.0 0.0 8 82
+ 0.982432 3 2 ack 40 ------- 1 4.0 0.0 8 82
- 0.982432 3 2 ack 40 ------- 1 4.0 0.0 8 82
r 0.983232 4 3 ack 40 ------- 1 4.0 0.0 9 83
+ 0.983232 3 2 ack 40 ------- 1 4.0 0.0 9 83
- 0.983232 3 2 ack 40 ------- 1 4.0 0.0 9 83
r 0.984032 4 3 ack 40 ------- 1 4.0 0.0 10 84
+ 0.984032 3 2 ack 40 ------- 1 4.0 0.0 10 84
- 0.984032 3 2 ack 40 ------- 1 4.0 0.0 10 84
r 0.9848 2 3 cbr 1000 ------- 0 2.0 3.0 58 80
r 0.984832 4 3 ack 40 ------- 1 4.0 0.0 11 85
+ 0.984832 3 2 ack 40 ------- 1 4.0 0.0 11 85
- 0.984832 3 2 ack 40 ------- 1 4.0 0.0 11 85
r 0.985632 4 3 ack 40 ------- 1 4.0 0.0 12 86
+ 0.985632 3 2 ack 40 ------- 1 4.0 0.0 12 86
- 0.985632 3 2 ack 40 ------- 1 4.0 0.0 12 86
r 0.986432 4 3 ack 40 ------- 1 4.0 0.0 13 87
+ 0.986432 3 2 ack 40 ------- 1 4.0 0.0 13 87
- 0.986432 3 2 ack 40 ------- 1 4.0 0.0 13 87
+ 0.988 2 3 cbr 1000 ------- 0 2.0 3.0 61 89
- 0.988 2 3 cbr 1000 ------- 0 2.0 3.0 61 89
r 0.9928 2 3 cbr 1000 ------- 0 2.0 3.0 59 81
+ 0.996 2 3 cbr 1000 ------- 0 2.0 3.0 62 90
- 0.996 2 3 cbr 1000 ------- 0 2.0 3.0 62 90
r 1.0008 2 3 cbr 1000 ------- 0 2.0 3.0 60 88
r 1.002464 3 2 ack 40 ------- 1 4.0 0.0 8 82
+ 1.002464 2 0 ack 40 ------- 1 4.0 0.0 8 82
- 1.002464 2 0 ack 40 ------- 1 4.0 0.0 8 82
r 1.003264 3 2 ack 40 ------- 1 4.0 0.0 9 83
+ 1.003264 2 0 ack 40 ------- 1 4.0 0.0 9 83
- 1.003264 2 0 ack 40 ------- 1 4.0 0.0 9 83
+ 1.004 2 3 cbr 1000 ------- 0 2.0 3.0 63 91
- 1.004 2 3 cbr 1000 ------- 0 2.0 3.0 63 91
r 1.004064 3 2 ack 40 ------- 1 4.0 0.0 10 84
+ 1.004064 2 0 ack 40 ------- 1 4.0 0.0 10 84
- 1.004064 2 0 ack 40 ------- 1 4.0 0.0 10 84
r 1.004864 3 2 ack 40 ------- 1 4.0 0.0 11 85
+ 1.004864 2 0 ack 40 ------- 1 4.0 0.0 11 85
- 1.004864 2 0 ack 40 ------- 1 4.0 0.0 11 85
r 1.005664 3 2 ack 40 ------- 1 4.0 0.0 12 86
+ 1.005664 2 0 ack 40 ------- 1 4.0 0.0 12 86
- 1.005664 2 0 ack 40 ------- 1 4.0 0.0 12 86
r 1.006464 3 2 ack 40 ------- 1 4.0 0.0 13 87
+ 1.006464 2 0 ack 40 ------- 1 4.0 0.0 13 87
- 1.006464 2 0 ack 40 ------- 1 4.0 0.0 13 87
r 1.0088 2 3 cbr 1000 ------- 0 2.0 3.0 61 89
+ 1.012 2 3 cbr 1000 ------- 0 2.0 3.0 64 92
- 1.012 2 3 cbr 1000 ------- 0 2.0 3.0 64 92
r 1.012496 2 0 ack 40 ------- 1 4.0 0.0 8 82
+ 1.012496 0 2 tcp 1000 ------- 1 0.0 4.0 14 93
- 1.012496 0 2 tcp 1000 ------- 1 0.0 4.0 14 93
r 1.013296 2 0 ack 40 ------- 1 4.0 0.0 9 83
+ 1.013296 0 2 tcp 1000 ------- 1 0.0 4.0 15 94
- 1.013296 0 2 tcp 1000 ------- 1 0.0 4.0 15 94
r 1.014096 2 0 ack 40 ------- 1 4.0 0.0 10 84
+ 1.014096 0 2 tcp 1000 ------- 1 0.0 4.0 16 95
- 1.014096 0 2 tcp 1000 ------- 1 0.0 4.0 16 95
r 1.014896 2 0 ack 40 ------- 1 4.0 0.0 11 85
+ 1.014896 0 2 tcp 1000 ------- 1 0.0 4.0 17 96
- 1.014896 0 2 tcp 1000 ------- 1 0.0 4.0 17 96
r 1.015696 2 0 ack 40 ------- 1 4.0 0.0 12 86
+ 1.015696 0 2 tcp 1000 ------- 1 0.0 4.0 18 97
- 1.015696 0 2 tcp 1000 ------- 1 0.0 4.0 18 97
r 1.016496 2 0 ack 40 ------- 1 4.0 0.0 13 87
+ 1.016496 0 2 tcp 1000 ------- 1 0.0 4.0 19 98
- 1.016496 0 2 tcp 1000 ------- 1 0.0 4.0 19 98
r 1.0168 2 3 cbr 1000 ------- 0 2.0 3.0 62 90
+ 1.02 2 3 cbr 1000 ------- 0 2.0 3.0 65 99
- 1.02 2 3 cbr 1000 ------- 0 2.0 3.0 65 99
r 1.023296 0 2 tcp 1000 ------- 1 0.0 4.0 14 93
+ 1.023296 2 3 tcp 1000 ------- 1 0.0 4.0 14 93
- 1.023296 2 3 tcp 1000 ------- 1 0.0 4.0 14 93
r 1.024096 0 2 tcp 1000 ------- 1 0.0 4.0 15 94
+ 1.024096 2 3 tcp 1000 ------- 1 0.0 4.0 15 94
- 1.024096 2 3 tcp 1000 ------- 1 0.0 4.0 15 94
r 1.0248 2 3 cbr 1000 ------- 0 2.0 3.0 63 91
r 1.024896 0 2 tcp 1000 ------- 1 0.0 4.0 16 95
+ 1.024896 2 3 tcp 1000 ------- 1 0.0 4.0 16 95
- 1.024896 2 3 tcp 1000 ------- 1 0.0 4.0 16 95
r 1.025696 0 2 tcp 1000 ------- 1 0.0 4.0 17 96
+ 1.025696 2 3 tcp 1000 ------- 1 0.0 4.0 17 96
- 1.025696 2 3 tcp 1000 ------- 1 0.0 4.0 17 96
r 1.026496 0 2 tcp 1000 ------- 1 0.0 4.0 18 97
+ 1.026496 2 3 tcp 1000 ------- 1 0.0 4.0 18 97
- 1.026496 2 3 tcp 1000 ------- 1 0.0 4.0 18 97
r 1.027296 0 2 tcp 1000 ------- 1 0.0 4.0 19 98
+ 1.027296 2 3 tcp 1000 ------- 1 0.0 4.0 19 98
- 1.027296 2 3 tcp 1000 ------- 1 0.0 4.0 19 98
+ 1.028 2 3 cbr 1000 ------- 0 2.0 3.0 66 100
- 1.028096 2 3 cbr 1000 ------- 0 2.0 3.0 66 100
r 1.0328 2 3 cbr 1000 ------- 0 2.0 3.0 64 92
+ 1.036 2 3 cbr 1000 ------- 0 2.0 3.0 67 101
- 1.036 2 3 cbr 1000 ------- 0 2.0 3.0 67 101
r 1.0408 2 3 cbr 1000 ------- 0 2.0 3.0 65 99
+ 1.044 2 3 cbr 1000 ------- 0 2.0 3.0 68 102
- 1.044 2 3 cbr 1000 ------- 0 2.0 3.0 68 102
r 1.044096 2 3 tcp 1000 ------- 1 0.0 4.0 14 93
+ 1.044096 3 4 tcp 1000 ------- 1 0.0 4.0 14 93
- 1.044096 3 4 tcp 1000 ------- 1 0.0 4.0 14 93
r 1.044896 2 3 tcp 1000 ------- 1 0.0 4.0 15 94
+ 1.044896 3 4 tcp 1000 ------- 1 0.0 4.0 15 94
- 1.044896 3 4 tcp 1000 ------- 1 0.0 4.0 15 94
r 1.045696 2 3 tcp 1000 ------- 1 0.0 4.0 16 95
+ 1.045696 3 4 tcp 1000 ------- 1 0.0 4.0 16 95
- 1.045696 3 4 tcp 1000 ------- 1 0.0 4.0 16 95
r 1.046496 2 3 tcp 1000 ------- 1 0.0 4.0 17 96
+ 1.046496 3 4 tcp 1000 ------- 1 0.0 4.0 17 96
- 1.046496 3 4 tcp 1000 ------- 1 0.0 4.0 17 96
r 1.047296 2 3 tcp 1000 ------- 1 0.0 4.0 18 97
+ 1.047296 3 4 tcp 1000 ------- 1 0.0 4.0 18 97
- 1.047296 3 4 tcp 1000 ------- 1 0.0 4.0 18 97
r 1.048096 2 3 tcp 1000 ------- 1 0.0 4.0 19 98
+ 1.048096 3 4 tcp 1000 ------- 1 0.0 4.0 19 98
- 1.048096 3 4 tcp 1000 ------- 1 0.0 4.0 19 98
r 1.048896 2 3 cbr 1000 ------- 0 2.0 3.0 66 100
+ 1.052 2 3 cbr 1000 ------- 0 2.0 3.0 69 103
- 1.052 2 3 cbr 1000 ------- 0 2.0 3.0 69 103
r 1.054896 3 4 tcp 1000 ------- 1 0.0 4.0 14 93
+ 1.054896 4 3 ack 40 ------- 1 4.0 0.0 14 104
- 1.054896 4 3 ack 40 ------- 1 4.0 0.0 14 104
r 1.055696 3 4 tcp 1000 ------- 1 0.0 4.0 15 94
+ 1.055696 4 3 ack 40 ------- 1 4.0 0.0 15 105
- 1.055696 4 3 ack 40 ------- 1 4.0 0.0 15 105
r 1.056496 3 4 tcp 1000 ------- 1 0.0 4.0 16 95
+ 1.056496 4 3 ack 40 ------- 1 4.0 0.0 16 106
- 1.056496 4 3 ack 40 ------- 1 4.0 0.0 16 106
r 1.0568 2 3 cbr 1000 ------- 0 2.0 3.0 67 101
r 1.057296 3 4 tcp 1000 ------- 1 0.0 4.0 17 96
+ 1.057296 4 3 ack 40 ------- 1 4.0 0.0 17 107
- 1.057296 4 3 ack 40 ------- 1 4.0 0.0 17 107
r 1.058096 3 4 tcp 1000 ------- 1 0.0 4.0 18 97
+ 1.058096 4 3 ack 40 ------- 1 4.0 0.0 18 108
- 1.058096 4 3 ack 40 ------- 1 4.0 0.0 18 108
r 1.058896 3 4 tcp 1000 ------- 1 0.0 4.0 19 98
+ 1.058896 4 3 ack 40 ------- 1 4.0 0.0 19 109
- 1.058896 4 3 ack 40 ------- 1 4.0 0.0 19 109
+ 1.06 2 3 cbr 1000 ------- 0 2.0 3.0 70 110
- 1.06 2 3 cbr 1000 ------- 0 2.0 3.0 70 110
r 1.0648 2 3 cbr 1000 ------- 0 2.0 3.0 68 102
r 1.064928 4 3 ack 40 ------- 1 4.0 0.0 14 104
+ 1.064928 3 2 ack 40 ------- 1 4.0 0.0 14 104
- 1.064928 3 2 ack 40 ------- 1 4.0 0.0 14 104
r 1.065728 4 3 ack 40 ------- 1 4.0 0.0 15 105
+ 1.065728 3 2 ack 40 ------- 1 4.0 0.0 15 105
- 1.065728 3 2 ack 40 ------- 1 4.0 0.0 15 105
r 1.066528 4 3 ack 40 ------- 1 4.0 0.0 16 106
+ 1.066528 3 2 ack 40 ------- 1 4.0 0.0 16 106
- 1.066528 3 2 ack 40 ------- 1 4.0 0.0 16 106
r 1.067328 4 3 ack 40 ------- 1 4.0 0.0 17 107
+ 1.067328 3 2 ack 40 ------- 1 4.0 0.0 17 107
- 1.067328 3 2 ack 40 ------- 1 4.0 0.0 17 107
+ 1.068 2 3 cbr 1000 ------- 0 2.0 3.0 71 111
- 1.068 2 3 cbr 1000 ------- 0 2.0 3.0 71 111
r 1.068128 4 3 ack 40 ------- 1 4.0 0.0 18 108
+ 1.068128 3 2 ack 40 ------- 1 4.0 0.0 18 108
- 1.068128 3 2 ack 40 ------- 1 4.0 0.0 18 108
r 1.068928 4 3 ack 40 ------- 1 4.0 0.0 19 109
+ 1.068928 3 2 ack 40 ------- 1 4.0 0.0 19 109
- 1.068928 3 2 ack 40 ------- 1 4.0 0.0 19 109
r 1.0728 2 3 cbr 1000 ------- 0 2.0 3.0 69 103
+ 1.076 2 3 cbr 1000 ------- 0 2.0 3.0 72 112
- 1.076 2 3 cbr 1000 ------- 0 2.0 3.0 72 112
r 1.0808 2 3 cbr 1000 ------- 0 2.0 3.0 70 110
+ 1.084 2 3 cbr 1000 ------- 0 2.0 3.0 73 113
- 1.084 2 3 cbr 1000 ------- 0 2.0 3.0 73 113
r 1.08496 3 2 ack 40 ------- 1 4.0 0.0 14 104
+ 1.08496 2 0 ack 40 ------- 1 4.0 0.0 14 104
- 1.08496 2 0 ack 40 ------- 1 4.0 0.0 14 104
r 1.08576 3 2 ack 40 ------- 1 4.0 0.0 15 105
+ 1.08576 2 0 ack 40 ------- 1 4.0 0.0 15 105
- 1.08576 2 0 ack 40 ------- 1 4.0 0.0 15 105
r 1.08656 3 2 ack 40 ------- 1 4.0 0.0 16 106
+ 1.08656 2 0 ack 40 ------- 1 4.0 0.0 16 106
- 1.08656 2 0 ack 40 ------- 1 4.0 0.0 16 106
r 1.08736 3 2 ack 40 ------- 1 4.0 0.0 17 107
+ 1.08736 2 0 ack 40 ------- 1 4.0 0.0 17 107
- 1.08736 2 0 ack 40 ------- 1 4.0 0.0 17 107
r 1.08816 3 2 ack 40 ------- 1 4.0 0.0 18 108
+ 1.08816 2 0 ack 40 ------- 1 4.0 0.0 18 108
- 1.08816 2 0 ack 40 ------- 1 4.0 0.0 18 108
r 1.0888 2 3 cbr 1000 ------- 0 2.0 3.0 71 111
r 1.08896 3 2 ack 40 ------- 1 4.0 0.0 19 109
+ 1.08896 2 0 ack 40 ------- 1 4.0 0.0 19 109
- 1.08896 2 0 ack 40 ------- 1 4.0 0.0 19 109
+ 1.092 2 3 cbr 1000 ------- 0 2.0 3.0 74 114
- 1.092 2 3 cbr 1000 ------- 0 2.0 3.0 74 114
r 1.094992 2 0 ack 40 ------- 1 4.0 0.0 14 104
+ 1.094992 0 2 tcp 1000 ------- 1 0.0 4.0 20 115
- 1.094992 0 2 tcp 1000 ------- 1 0.0 4.0 20 115
+ 1.094992 0 2 tcp 1000 ------- 1 0.0 4.0 21 116
- 1.095792 0 2 tcp 1000 ------- 1 0.0 4.0 21 116
r 1.095792 2 0 ack 40 ------- 1 4.0 0.0 15 105
+ 1.095792 0 2 tcp 1000 ------- 1 0.0 4.0 22 117
+ 1.095792 0 2 tcp 1000 ------- 1 0.0 4.0 23 118
- 1.096592 0 2 tcp 1000 ------- 1 0.0 4.0 22 117
r 1.096592 2 0 ack 40 ------- 1 4.0 0.0 16 106
+ 1.096592 0 2 tcp 1000 ------- 1 0.0 4.0 24 119
+ 1.096592 0 2 tcp 1000 ------- 1 0.0 4.0 25 120
r 1.0968 2 3 cbr 1000 ------- 0 2.0 3.0 72 112
- 1.097392 0 2 tcp 1000 ------- 1 0.0 4.0 23 118
r 1.097392 2 0 ack 40 ------- 1 4.0 0.0 17 107
+ 1.097392 0 2 tcp 1000 ------- 1 0.0 4.0 26 121
+ 1.097392 0 2 tcp 1000 ------- 1 0.0 4.0 27 122
- 1.098192 0 2 tcp 1000 ------- 1 0.0 4.0 24 119
r 1.098192 2 0 ack 40 ------- 1 4.0 0.0 18 108
+ 1.098192 0 2 tcp 1000 ------- 1 0.0 4.0 28 123
+ 1.098192 0 2 tcp 1000 ------- 1 0.0 4.0 29 124
- 1.098992 0 2 tcp 1000 ------- 1 0.0 4.0 25 120
r 1.098992 2 0 ack 40 ------- 1 4.0 0.0 19 109
+ 1.098992 0 2 tcp 1000 ------- 1 0.0 4.0 30 125
+ 1.098992 0 2 tcp 1000 ------- 1 0.0 4.0 31 126
- 1.099792 0 2 tcp 1000 ------- 1 0.0 4.0 26 121
+ 1.1 2 3 cbr 1000 ------- 0 2.0 3.0 75 127
- 1.1 2 3 cbr 1000 ------- 0 2.0 3.0 75 127
- 1.100592 0 2 tcp 1000 ------- 1 0.0 4.0 27 122
- 1.101392 0 2 tcp 1000 ------- 1 0.0 4.0 28 123
- 1.102192 0 2 tcp 1000 ------- 1 0.0 4.0 29 124
- 1.102992 0 2 tcp 1000 ------- 1 0.0 4.0 30 125
- 1.103792 0 2 tcp 1000 ------- 1 0.0 4.0 31 126
r 1.1048 2 3 cbr 1000 ------- 0 2.0 3.0 73 113
r 1.105792 0 2 tcp 1000 ------- 1 0.0 4.0 20 115
+ 1.105792 2 3 tcp 1000 ------- 1 0.0 4.0 20 115
- 1.105792 2 3 tcp 1000 ------- 1 0.0 4.0 20 115
r 1.106592 0 2 tcp 1000 ------- 1 0.0 4.0 21 116
+ 1.106592 2 3 tcp 1000 ------- 1 0.0 4.0 21 116
- 1.106592 2 3 tcp 1000 ------- 1 0.0 4.0 21 116
r 1.107392 0 2 tcp 1000 ------- 1 0.0 4.0 22 117
+ 1.107392 2 3 tcp 1000 ------- 1 0.0 4.0 22 117
- 1.107392 2 3 tcp 1000 ------- 1 0.0 4.0 22 117
+ 1.108 2 3 cbr 1000 ------- 0 2.0 3.0 76 128
r 1.108192 0 2 tcp 1000 ------- 1 0.0 4.0 23 118
+ 1.108192 2 3 tcp 1000 ------- 1 0.0 4.0 23 118
- 1.108192 2 3 cbr 1000 ------- 0 2.0 3.0 76 128
r 1.108992 0 2 tcp 1000 ------- 1 0.0 4.0 24 119
+ 1.108992 2 3 tcp 1000 ------- 1 0.0 4.0 24 119
- 1.108992 2 3 tcp 1000 ------- 1 0.0 4.0 23 118
r 1.109792 0 2 tcp 1000 ------- 1 0.0 4.0 25 120
+ 1.109792 2 3 tcp 1000 ------- 1 0.0 4.0 25 120
- 1.109792 2 3 tcp 1000 ------- 1 0.0 4.0 24 119
r 1.110592 0 2 tcp 1000 ------- 1 0.0 4.0 26 121
+ 1.110592 2 3 tcp 1000 ------- 1 0.0 4.0 26 121
- 1.110592 2 3 tcp 1000 ------- 1 0.0 4.0 25 120
r 1.111392 0 2 tcp 1000 ------- 1 0.0 4.0 27 122
+ 1.111392 2 3 tcp 1000 ------- 1 0.0 4.0 27 122
- 1.111392 2 3 tcp 1000 ------- 1 0.0 4.0 26 121
r 1.112192 0 2 tcp 1000 ------- 1 0.0 4.0 28 123
+ 1.112192 2 3 tcp 1000 ------- 1 0.0 4.0 28 123
- 1.112192 2 3 tcp 1000 ------- 1 0.0 4.0 27 122
r 1.1128 2 3 cbr 1000 ------- 0 2.0 3.0 74 114
r 1.112992 0 2 tcp 1000 ------- 1 0.0 4.0 29 124
+ 1.112992 2 3 tcp 1000 ------- 1 0.0 4.0 29 124
- 1.112992 2 3 tcp 1000 ------- 1 0.0 4.0 28 123
r 1.113792 0 2 tcp 1000 ------- 1 0.0 4.0 30 125
+ 1.113792 2 3 tcp 1000 ------- 1 0.0 4.0 30 125
- 1.113792 2 3 tcp 1000 ------- 1 0.0 4.0 29 124
r 1.114592 0 2 tcp 1000 ------- 1 0.0 4.0 31 126
+ 1.114592 2 3 tcp 1000 ------- 1 0.0 4.0 31 126
- 1.114592 2 3 tcp 1000 ------- 1 0.0 4.0 30 125
- 1.115392 2 3 tcp 1000 ------- 1 0.0 4.0 31 126
+ 1.116 2 3 cbr 1000 ------- 0 2.0 3.0 77 129