+ 0.5 2 3 cbr 1000 ------- 0 2.0 3.0 0 0
- 0.5 2 3 cbr 1000 ------- 0 2.0 3.0 0 0
+ 0.502667 2 3 cbr 1000 ------- 0 2.0 3.0 1 1
- 0.502667 2 3 cbr 1000 ------- 0 2.0 3.0 1 1
+ 0.505333 2 3 cbr 1000 ------- 0 2.0 3.0 2 2
- 0.505333 2 3 cbr 1000 ------- 0 2.0 3.0 2 2
+ 0.508 2 3 cbr 1000 ------- 0 2.0 3.0 3 3
- 0.508 2 3 cbr 1000 ------- 0 2.0 3.0 3 3
+ 0.510667 2 3 cbr 1000 ------- 0 2.0 3.0 4 4
- 0.510667 2 3 cbr 1000 ------- 0 2.0 3.0 4 4
+ 0.513333 2 3 cbr 1000 ------- 0 2.0 3.0 5 5
- 0.513333 2 3 cbr 1000 ------- 0 2.0 3.0 5 5
+ 0.516 2 3 cbr 1000 ------- 0 2.0 3.0 6 6
- 0.516 2 3 cbr 1000 ------- 0 2.0 3.0 6 6
+ 0.518667 2 3 cbr 1000 ------- 0 2.0 3.0 7 7
- 0.518667 2 3 cbr 1000 ------- 0 2.0 3.0 7 7
r 0.5208 2 3 cbr 1000 ------- 0 2.0 3.0 0 0
+ 0.521333 2 3 cbr 1000 ------- 0 2.0 3.0 8 8
- 0.521333 2 3 cbr 1000 ------- 0 2.0 3.0 8 8
r 0.523467 2 3 cbr 1000 ------- 0 2.0 3.0 1 1
+ 0.524 2 3 cbr 1000 ------- 0 2.0 3.0 9 9
- 0.524 2 3 cbr 1000 ------- 0 2.0 3.0 9 9
r 0.526133 2 3 cbr 1000 ------- 0 2.0 3.0 2 2
+ 0.526667 2 3 cbr 1000 ------- 0 2.0 3.0 10 10
- 0.526667 2 3 cbr 1000 ------- 0 2.0 3.0 10 10
r 0.5288 2 3 cbr 1000 ------- 0 2.0 3.0 3 3
+ 0.529333 2 3 cbr 1000 ------- 0 2.0 3.0 11 11
- 0.529333 2 3 cbr 1000 ------- 0 2.0 3.0 11 11
r 0.531467 2 3 cbr 1000 ------- 0 2.0 3.0 4 4
+ 0.532 2 3 cbr 1000 ------- 0 2.0 3.0 12 12
- 0.532 2 3 cbr 1000 ------- 0 2.0 3.0 12 12
r 0.534133 2 3 cbr 1000 ------- 0 2.0 3.0 5 5
+ 0.534667 2 3 cbr 1000 ------- 0 2.0 3.0 13 13
- 0.534667 2 3 cbr 1000 ------- 0 2.0 3.0 13 13
r 0.5368 2 3 cbr 1000 ------- 0 2.0 3.0 6 6
+ 0.537333 2 3 cbr 1000 ------- 0 2.0 3.0 14 14
- 0.537333 2 3 cbr 1000 ------- 0 2.0 3.0 14 14
r 0.539467 2 3 cbr 1000 ------- 0 2.0 3.0 7 7
+ 0.54 2 3 cbr 1000 ------- 0 2.0 3.0 15 15
- 0.54 2 3 cbr 1000 ------- 0 2.0 3.0 15 15
r 0.542133 2 3 cbr 1000 ------- 0 2.0 3.0 8 8
+ 0.542667 2 3 cbr 1000 ------- 0 2.0 3.0 16 16
- 0.542667 2 3 cbr 1000 ------- 0 2.0 3.0 16 16
r 0.5448 2 3 cbr 1000 ------- 0 2.0 3.0 9 9
+ 0.545333 2 3 cbr 1000 ------- 0 2.0 3.0 17 17
- 0.545333 2 3 cbr 1000 ------- 0 2.0 3.0 17 17
r 0.547467 2 3 cbr 1000 ------- 0 2.0 3.0 10 10
+ 0.548 2 3 cbr 1000 ------- 0 2.0 3.0 18 18
- 0.548 2 3 cbr 1000 ------- 0 2.0 3.0 18 18
r 0.550133 2 3 cbr 1000 ------- 0 2.0 3.0 11 11
+ 0.550667 2 3 cbr 1000 ------- 0 2.0 3.0 19 19
- 0.550667 2 3 cbr 1000 ------- 0 2.0 3.0 19 19
r 0.5528 2 3 cbr 1000 ------- 0 2.0 3.0 12 12
+ 0.553333 2 3 cbr 1000 ------- 0 2.0 3.0 20 20
- 0.553333 2 3 cbr 1000 ------- 0 2.0 3.0 20 20
r 0.555467 2 3 cbr 1000 ------- 0 2.0 3.0 13 13
+ 0.556 2 3 cbr 1000 ------- 0 2.0 3.0 21 21
- 0.556 2 3 cbr 1000 ------- 0 2.0 3.0 21 21
r 0.558133 2 3 cbr 1000 ------- 0 2.0 3.0 14 14
+ 0.558667 2 3 cbr 1000 ------- 0 2.0 3.0 22 22
- 0.558667 2 3 cbr 1000 ------- 0 2.0 3.0 22 22
r 0.5608 2 3 cbr 1000 ------- 0 2.0 3.0 15 15
+ 0.561333 2 3 cbr 1000 ------- 0 2.0 3.0 23 23
- 0.561333 2 3 cbr 1000 ------- 0 2.0 3.0 23 23
r 0.563467 2 3 cbr 1000 ------- 0 2.0 3.0 16 16
+ 0.564 2 3 cbr 1000 ------- 0 2.0 3.0 24 24
- 0.564 2 3 cbr 1000 ------- 0 2.0 3.0 24 24
r 0.566133 2 3 cbr 1000 ------- 0 2.0 3.0 17 17
+ 0.566667 2 3 cbr 1000 ------- 0 2.0 3.0 25 25
- 0.566667 2 3 cbr 1000 ------- 0 2.0 3.0 25 25
r 0.5688 2 3 cbr 1000 ------- 0 2.0 3.0 18 18
+ 0.569333 2 3 cbr 1000 ------- 0 2.0 3.0 26 26
- 0.569333 2 3 cbr 1000 ------- 0 2.0 3.0 26 26
r 0.571467 2 3 cbr 1000 ------- 0 2.0 3.0 19 19
+ 0.572 2 3 cbr 1000 ------- 0 2.0 3.0 27 27
- 0.572 2 3 cbr 1000 ------- 0 2.0 3.0 27 27
r 0.574133 2 3 cbr 1000 ------- 0 2.0 3.0 20 20
+ 0.574667 2 3 cbr 1000 ------- 0 2.0 3.0 28 28
- 0.574667 2 3 cbr 1000 ------- 0 2.0 3.0 28 28
r 0.5768 2 3 cbr 1000 ------- 0 2.0 3.0 21 21
+ 0.577333 2 3 cbr 1000 ------- 0 2.0 3.0 29 29
- 0.577333 2 3 cbr 1000 ------- 0 2.0 3.0 29 29
r 0.579467 2 3 cbr 1000 ------- 0 2.0 3.0 22 22
+ 0.58 2 3 cbr 1000 ------- 0 2.0 3.0 30 30
- 0.58 2 3 cbr 1000 ------- 0 2.0 3.0 30 30
r 0.582133 2 3 cbr 1000 ------- 0 2.0 3.0 23 23
+ 0.582667 2 3 cbr 1000 ------- 0 2.0 3.0 31 31
- 0.582667 2 3 cbr 1000 ------- 0 2.0 3.0 31 31
r 0.5848 2 3 cbr 1000 ------- 0 2.0 3.0 24 24
+ 0.585333 2 3 cbr 1000 ------- 0 2.0 3.0 32 32
- 0.585333 2 3 cbr 1000 ------- 0 2.0 3.0 32 32
r 0.587467 2 3 cbr 1000 ------- 0 2.0 3.0 25 25
+ 0.588 2 3 cbr 1000 ------- 0 2.0 3.0 33 33
- 0.588 2 3 cbr 1000 ------- 0 2.0 3.0 33 33
r 0.590133 2 3 cbr 1000 ------- 0 2.0 3.0 26 26
+ 0.590667 2 3 cbr 1000 ------- 0 2.0 3.0 34 34
- 0.590667 2 3 cbr 1000 ------- 0 2.0 3.0 34 34
r 0.5928 2 3 cbr 1000 ------- 0 2.0 3.0 27 27
+ 0.593333 2 3 cbr 1000 ------- 0 2.0 3.0 35 35
- 0.593333 2 3 cbr 1000 ------- 0 2.0 3.0 35 35
r 0.595467 2 3 cbr 1000 ------- 0 2.0 3.0 28 28
+ 0.596 2 3 cbr 1000 ------- 0 2.0 3.0 36 36
- 0.596 2 3 cbr 1000 ------- 0 2.0 3.0 36 36
r 0.598133 2 3 cbr 1000 ------- 0 2.0 3.0 29 29
+ 0.598667 2 3 cbr 1000 ------- 0 2.0 3.0 37 37
- 0.598667 2 3 cbr 1000 ------- 0 2.0 3.0 37 37
+ 0.6 0 2 tcp 1000 ------- 1 0.0 4.0 0 38
- 0.6 0 2 tcp 1000 ------- 1 0.0 4.0 0 38
r 0.6008 2 3 cbr 1000 ------- 0 2.0 3.0 30 30
+ 0.601333 2 3 cbr 1000 ------- 0 2.0 3.0 38 39
- 0.601333 2 3 cbr 1000 ------- 0 2.0 3.0 38 39
r 0.603467 2 3 cbr 1000 ------- 0 2.0 3.0 31 31
+ 0.604 2 3 cbr 1000 ------- 0 2.0 3.0 39 40
- 0.604 2 3 cbr 1000 ------- 0 2.0 3.0 39 40
r 0.606133 2 3 cbr 1000 ------- 0 2.0 3.0 32 32
+ 0.606667 2 3 cbr 1000 ------- 0 2.0 3.0 40 41
- 0.606667 2 3 cbr 1000 ------- 0 2.0 3.0 40 41
r 0.6088 2 3 cbr 1000 ------- 0 2.0 3.0 33 33
+ 0.609333 2 3 cbr 1000 ------- 0 2.0 3.0 41 42
- 0.609333 2 3 cbr 1000 ------- 0 2.0 3.0 41 42
r 0.6108 0 2 tcp 1000 ------- 1 0.0 4.0 0 38
+ 0.6108 2 3 tcp 1000 ------- 1 0.0 4.0 0 38
- 0.6108 2 3 tcp 1000 ------- 1 0.0 4.0 0 38
r 0.611467 2 3 cbr 1000 ------- 0 2.0 3.0 34 34
+ 0.612 2 3 cbr 1000 ------- 0 2.0 3.0 42 43
- 0.612 2 3 cbr 1000 ------- 0 2.0 3.0 42 43
r 0.614133 2 3 cbr 1000 ------- 0 2.0 3.0 35 35
+ 0.614667 2 3 cbr 1000 ------- 0 2.0 3.0 43 44
- 0.614667 2 3 cbr 1000 ------- 0 2.0 3.0 43 44
r 0.6168 2 3 cbr 1000 ------- 0 2.0 3.0 36 36
+ 0.617333 2 3 cbr 1000 ------- 0 2.0 3.0 44 45
- 0.617333 2 3 cbr 1000 ------- 0 2.0 3.0 44 45
r 0.619467 2 3 cbr 1000 ------- 0 2.0 3.0 37 37
+ 0.62 2 3 cbr 1000 ------- 0 2.0 3.0 45 46
- 0.62 2 3 cbr 1000 ------- 0 2.0 3.0 45 46
r 0.622133 2 3 cbr 1000 ------- 0 2.0 3.0 38 39
+ 0.622667 2 3 cbr 1000 ------- 0 2.0 3.0 46 47
- 0.622667 2 3 cbr 1000 ------- 0 2.0 3.0 46 47
r 0.6248 2 3 cbr 1000 ------- 0 2.0 3.0 39 40
+ 0.625333 2 3 cbr 1000 ------- 0 2.0 3.0 47 48
- 0.625333 2 3 cbr 1000 ------- 0 2.0 3.0 47 48
r 0.627467 2 3 cbr 1000 ------- 0 2.0 3.0 40 41
+ 0.628 2 3 cbr 1000 ------- 0 2.0 3.0 48 49
- 0.628 2 3 cbr 1000 ------- 0 2.0 3.0 48 49
r 0.630133 2 3 cbr 1000 ------- 0 2.0 3.0 41 42
+ 0.630667 2 3 cbr 1000 ------- 0 2.0 3.0 49 50
- 0.630667 2 3 cbr 1000 ------- 0 2.0 3.0 49 50
r 0.6316 2 3 tcp 1000 ------- 1 0.0 4.0 0 38
+ 0.6316 3 4 tcp 1000 ------- 1 0.0 4.0 0 38
- 0.6316 3 4 tcp 1000 ------- 1 0.0 4.0 0 38
r 0.6328 2 3 cbr 1000 ------- 0 2.0 3.0 42 43
+ 0.633333 2 3 cbr 1000 ------- 0 2.0 3.0 50 51
- 0.633333 2 3 cbr 1000 ------- 0 2.0 3.0 50 51
r 0.635467 2 3 cbr 1000 ------- 0 2.0 3.0 43 44
+ 0.636 2 3 cbr 1000 ------- 0 2.0 3.0 51 52
- 0.636 2 3 cbr 1000 ------- 0 2.0 3.0 51 52
r 0.638133 2 3 cbr 1000 ------- 0 2.0 3.0 44 45
+ 0.638667 2 3 cbr 1000 ------- 0 2.0 3.0 52 53
- 0.638667 2 3 cbr 1000 ------- 0 2.0 3.0 52 53
r 0.6408 2 3 cbr 1000 ------- 0 2.0 3.0 45 46
+ 0.641333 2 3 cbr 1000 ------- 0 2.0 3.0 53 54
- 0.641333 2 3 cbr 1000 ------- 0 2.0 3.0 53 54
r 0.6424 3 4 tcp 1000 ------- 1 0.0 4.0 0 38
+ 0.6424 4 3 ack 40 ------- 1 4.0 0.0 0 55
- 0.6424 4 3 ack 40 ------- 1 4.0 0.0 0 55
r 0.643467 2 3 cbr 1000 ------- 0 2.0 3.0 46 47
+ 0.644 2 3 cbr 1000 ------- 0 2.0 3.0 54 56
- 0.644 2 3 cbr 1000 ------- 0 2.0 3.0 54 56
r 0.646133 2 3 cbr 1000 ------- 0 2.0 3.0 47 48
+ 0.646667 2 3 cbr 1000 ------- 0 2.0 3.0 55 57
- 0.646667 2 3 cbr 1000 ------- 0 2.0 3.0 55 57
r 0.6488 2 3 cbr 1000 ------- 0 2.0 3.0 48 49
+ 0.649333 2 3 cbr 1000 ------- 0 2.0 3.0 56 58
- 0.649333 2 3 cbr 1000 ------- 0 2.0 3.0 56 58
r 0.651467 2 3 cbr 1000 ------- 0 2.0 3.0 49 50
+ 0.652 2 3 cbr 1000 ------- 0 2.0 3.0 57 59
- 0.652 2 3 cbr 1000 ------- 0 2.0 3.0 57 59
r 0.652432 4 3 ack 40 ------- 1 4.0 0.0 0 55
+ 0.652432 3 2 ack 40 ------- 1 4.0 0.0 0 55
- 0.652432 3 2 ack 40 ------- 1 4.0 0.0 0 55
r 0.654133 2 3 cbr 1000 ------- 0 2.0 3.0 50 51
+ 0.654667 2 3 cbr 1000 ------- 0 2.0 3.0 58 60
- 0.654667 2 3 cbr 1000 ------- 0 2.0 3.0 58 60
r 0.6568 2 3 cbr 1000 ------- 0 2.0 3.0 51 52
+ 0.657333 2 3 cbr 1000 ------- 0 2.0 3.0 59 61
- 0.657333 2 3 cbr 1000 ------- 0 2.0 3.0 59 61
r 0.659467 2 3 cbr 1000 ------- 0 2.0 3.0 52 53
+ 0.66 2 3 cbr 1000 ------- 0 2.0 3.0 60 62
- 0.66 2 3 cbr 1000 ------- 0 2.0 3.0 60 62
r 0.662133 2 3 cbr 1000 ------- 0 2.0 3.0 53 54
+ 0.662667 2 3 cbr 1000 ------- 0 2.0 3.0 61 63
- 0.662667 2 3 cbr 1000 ------- 0 2.0 3.0 61 63
r 0.6648 2 3 cbr 1000 ------- 0 2.0 3.0 54 56
+ 0.665333 2 3 cbr 1000 ------- 0 2.0 3.0 62 64
- 0.665333 2 3 cbr 1000 ------- 0 2.0 3.0 62 64
r 0.667467 2 3 cbr 1000 ------- 0 2.0 3.0 55 57
+ 0.668 2 3 cbr 1000 ------- 0 2.0 3.0 63 65
- 0.668 2 3 cbr 1000 ------- 0 2.0 3.0 63 65
r 0.670133 2 3 cbr 1000 ------- 0 2.0 3.0 56 58
+ 0.670667 2 3 cbr 1000 ------- 0 2.0 3.0 64 66
- 0.670667 2 3 cbr 1000 ------- 0 2.0 3.0 64 66
r 0.672464 3 2 ack 40 ------- 1 4.0 0.0 0 55
+ 0.672464 2 0 ack 40 ------- 1 4.0 0.0 0 55
- 0.672464 2 0 ack 40 ------- 1 4.0 0.0 0 55
r 0.6728 2 3 cbr 1000 ------- 0 2.0 3.0 57 59
+ 0.673333 2 3 cbr 1000 ------- 0 2.0 3.0 65 67
- 0.673333 2 3 cbr 1000 ------- 0 2.0 3.0 65 67
r 0.675467 2 3 cbr 1000 ------- 0 2.0 3.0 58 60
+ 0.676 2 3 cbr 1000 ------- 0 2.0 3.0 66 68
- 0.676 2 3 cbr 1000 ------- 0 2.0 3.0 66 68
r 0.678133 2 3 cbr 1000 ------- 0 2.0 3.0 59 61
+ 0.678667 2 3 cbr 1000 ------- 0 2.0 3.0 67 69
- 0.678667 2 3 cbr 1000 ------- 0 2.0 3.0 67 69
r 0.6808 2 3 cbr 1000 ------- 0 2.0 3.0 60 62
+ 0.681333 2 3 cbr 1000 ------- 0 2.0 3.0 68 70
- 0.681333 2 3 cbr 1000 ------- 0 2.0 3.0 68 70
r 0.682496 2 0 ack 40 ------- 1 4.0 0.0 0 55
+ 0.682496 0 2 tcp 1000 ------- 1 0.0 4.0 1 71
- 0.682496 0 2 tcp 1000 ------- 1 0.0 4.0 1 71
r 0.683467 2 3 cbr 1000 ------- 0 2.0 3.0 61 63
+ 0.684 2 3 cbr 1000 ------- 0 2.0 3.0 69 72
- 0.684 2 3 cbr 1000 ------- 0 2.0 3.0 69 72
r 0.686133 2 3 cbr 1000 ------- 0 2.0 3.0 62 64
+ 0.686667 2 3 cbr 1000 ------- 0 2.0 3.0 70 73
- 0.686667 2 3 cbr 1000 ------- 0 2.0 3.0 70 73
r 0.6888 2 3 cbr 1000 ------- 0 2.0 3.0 63 65
+ 0.689333 2 3 cbr 1000 ------- 0 2.0 3.0 71 74
- 0.689333 2 3 cbr 1000 ------- 0 2.0 3.0 71 74
r 0.691467 2 3 cbr 1000 ------- 0 2.0 3.0 64 66
+ 0.692 2 3 cbr 1000 ------- 0 2.0 3.0 72 75
- 0.692 2 3 cbr 1000 ------- 0 2.0 3.0 72 75
r 0.693296 0 2 tcp 1000 ------- 1 0.0 4.0 1 71
+ 0.693296 2 3 tcp 1000 ------- 1 0.0 4.0 1 71
- 0.693296 2 3 tcp 1000 ------- 1 0.0 4.0 1 71
r 0.694133 2 3 cbr 1000 ------- 0 2.0 3.0 65 67
+ 0.694667 2 3 cbr 1000 ------- 0 2.0 3.0 73 76
- 0.694667 2 3 cbr 1000 ------- 0 2.0 3.0 73 76
r 0.6968 2 3 cbr 1000 ------- 0 2.0 3.0 66 68
+ 0.697333 2 3 cbr 1000 ------- 0 2.0 3.0 74 77
- 0.697333 2 3 cbr 1000 ------- 0 2.0 3.0 74 77
r 0.699467 2 3 cbr 1000 ------- 0 2.0 3.0 67 69
+ 0.7 2 3 cbr 1000 ------- 0 2.0 3.0 75 78
- 0.7 2 3 cbr 1000 ------- 0 2.0 3.0 75 78
r 0.702133 2 3 cbr 1000 ------- 0 2.0 3.0 68 70
+ 0.702667 2 3 cbr 1000 ------- 0 2.0 3.0 76 79
- 0.702667 2 3 cbr 1000 ------- 0 2.0 3.0 76 79
r 0.7048 2 3 cbr 1000 ------- 0 2.0 3.0 69 72
+ 0.705333 2 3 cbr 1000 ------- 0 2.0 3.0 77 80
- 0.705333 2 3 cbr 1000 ------- 0 2.0 3.0 77 80
r 0.707467 2 3 cbr 1000 ------- 0 2.0 3.0 70 73
+ 0.708 2 3 cbr 1000 ------- 0 2.0 3.0 78 81
- 0.708 2 3 cbr 1000 ------- 0 2.0 3.0 78 81
r 0.710133 2 3 cbr 1000 ------- 0 2.0 3.0 71 74
+ 0.710667 2 3 cbr 1000 ------- 0 2.0 3.0 79 82
- 0.710667 2 3 cbr 1000 ------- 0 2.0 3.0 79 82
r 0.7128 2 3 cbr 1000 ------- 0 2.0 3.0 72 75
+ 0.713333 2 3 cbr 1000 ------- 0 2.0 3.0 80 83
- 0.713333 2 3 cbr 1000 ------- 0 2.0 3.0 80 83
r 0.714096 2 3 tcp 1000 ------- 1 0.0 4.0 1 71
+ 0.714096 3 4 tcp 1000 ------- 1 0.0 4.0 1 71
- 0.714096 3 4 tcp 1000 ------- 1 0.0 4.0 1 71
r 0.715467 2 3 cbr 1000 ------- 0 2.0 3.0 73 76
+ 0.716 2 3 cbr 1000 ------- 0 2.0 3.0 81 84
- 0.716 2 3 cbr 1000 ------- 0 2.0 3.0 81 84
r 0.718133 2 3 cbr 1000 ------- 0 2.0 3.0 74 77
+ 0.718667 2 3 cbr 1000 ------- 0 2.0 3.0 82 85
- 0.718667 2 3 cbr 1000 ------- 0 2.0 3.0 82 85
r 0.7208 2 3 cbr 1000 ------- 0 2.0 3.0 75 78
+ 0.721333 2 3 cbr 1000 ------- 0 2.0 3.0 83 86
- 0.721333 2 3 cbr 1000 ------- 0 2.0 3.0 83 86
r 0.723467 2 3 cbr 1000 ------- 0 2.0 3.0 76 79
+ 0.724 2 3 cbr 1000 ------- 0 2.0 3.0 84 87
- 0.724 2 3 cbr 1000 ------- 0 2.0 3.0 84 87
r 0.724896 3 4 tcp 1000 ------- 1 0.0 4.0 1 71
+ 0.724896 4 3 ack 40 ------- 1 4.0 0.0 1 88
- 0.724896 4 3 ack 40 ------- 1 4.0 0.0 1 88
r 0.726133 2 3 cbr 1000 ------- 0 2.0 3.0 77 80
+ 0.726667 2 3 cbr 1000 ------- 0 2.0 3.0 85 89
- 0.726667 2 3 cbr 1000 ------- 0 2.0 3.0 85 89
r 0.7288 2 3 cbr 1000 ------- 0 2.0 3.0 78 81
+ 0.729333 2 3 cbr 1000 ------- 0 2.0 3.0 86 90
- 0.729333 2 3 cbr 1000 ------- 0 2.0 3.0 86 90
r 0.731467 2 3 cbr 1000 ------- 0 2.0 3.0 79 82
+ 0.732 2 3 cbr 1000 ------- 0 2.0 3.0 87 91
- 0.732 2 3 cbr 1000 ------- 0 2.0 3.0 87 91
r 0.734133 2 3 cbr 1000 ------- 0 2.0 3.0 80 83
+ 0.734667 2 3 cbr 1000 ------- 0 2.0 3.0 88 92
- 0.734667 2 3 cbr 1000 ------- 0 2.0 3.0 88 92
r 0.734928 4 3 ack 40 ------- 1 4.0 0.0 1 88
+ 0.734928 3 2 ack 40 ------- 1 4.0 0.0 1 88
- 0.734928 3 2 ack 40 ------- 1 4.0 0.0 1 88
r 0.7368 2 3 cbr 1000 ------- 0 2.0 3.0 81 84
+ 0.737333 2 3 cbr 1000 ------- 0 2.0 3.0 89 93
- 0.737333 2 3 cbr 1000 ------- 0 2.0 3.0 89 93
r 0.739467 2 3 cbr 1000 ------- 0 2.0 3.0 82 85
+ 0.74 2 3 cbr 1000 ------- 0 2.0 3.0 90 94
- 0.74 2 3 cbr 1000 ------- 0 2.0 3.0 90 94
r 0.742133 2 3 cbr 1000 ------- 0 2.0 3.0 83 86
+ 0.742667 2 3 cbr 1000 ------- 0 2.0 3.0 91 95
- 0.742667 2 3 cbr 1000 ------- 0 2.0 3.0 91 95
r 0.7448 2 3 cbr 1000 ------- 0 2.0 3.0 84 87
+ 0.745333 2 3 cbr 1000 ------- 0 2.0 3.0 92 96
- 0.745333 2 3 cbr 1000 ------- 0 2.0 3.0 92 96
r 0.747467 2 3 cbr 1000 ------- 0 2.0 3.0 85 89
+ 0.748 2 3 cbr 1000 ------- 0 2.0 3.0 93 97
- 0.748 2 3 cbr 1000 ------- 0 2.0 3.0 93 97
r 0.750133 2 3 cbr 1000 ------- 0 2.0 3.0 86 90
+ 0.750667 2 3 cbr 1000 ------- 0 2.0 3.0 94 98
- 0.750667 2 3 cbr 1000 ------- 0 2.0 3.0 94 98
r 0.7528 2 3 cbr 1000 ------- 0 2.0 3.0 87 91
+ 0.753333 2 3 cbr 1000 ------- 0 2.0 3.0 95 99
- 0.753333 2 3 cbr 1000 ------- 0 2.0 3.0 95 99
r 0.75496 3 2 ack 40 ------- 1 4.0 0.0 1 88
+ 0.75496 2 0 ack 40 ------- 1 4.0 0.0 1 88
- 0.75496 2 0 ack 40 ------- 1 4.0 0.0 1 88
r 0.755467 2 3 cbr 1000 ------- 0 2.0 3.0 88 92
+ 0.756 2 3 cbr 1000 ------- 0 2.0 3.0 96 100
- 0.756 2 3 cbr 1000 ------- 0 2.0 3.0 96 100
r 0.758133 2 3 cbr 1000 ------- 0 2.0 3.0 89 93
+ 0.758667 2 3 cbr 1000 ------- 0 2.0 3.0 97 101
- 0.758667 2 3 cbr 1000 ------- 0 2.0 3.0 97 101
r 0.7608 2 3 cbr 1000 ------- 0 2.0 3.0 90 94
+ 0.761333 2 3 cbr 1000 ------- 0 2.0 3.0 98 102
- 0.761333 2 3 cbr 1000 ------- 0 2.0 3.0 98 102
r 0.763467 2 3 cbr 1000 ------- 0 2.0 3.0 91 95
+ 0.764 2 3 cbr 1000 ------- 0 2.0 3.0 99 103
- 0.764 2 3 cbr 1000 ------- 0 2.0 3.0 99 103
r 0.764992 2 0 ack 40 ------- 1 4.0 0.0 1 88
+ 0.764992 0 2 tcp 1000 ------- 1 0.0 4.0 2 104
- 0.764992 0 2 tcp 1000 ------- 1 0.0 4.0 2 104
+ 0.764992 0 2 tcp 1000 ------- 1 0.0 4.0 3 105
+ 0.764992 0 2 tcp 1000 ------- 1 0.0 4.0 4 106
- 0.765792 0 2 tcp 1000 ------- 1 0.0 4.0 3 105
r 0.766133 2 3 cbr 1000 ------- 0 2.0 3.0 92 96
- 0.766592 0 2 tcp 1000 ------- 1 0.0 4.0 4 106
+ 0.766667 2 3 cbr 1000 ------- 0 2.0 3.0 100 107
- 0.766667 2 3 cbr 1000 ------- 0 2.0 3.0 100 107
r 0.7688 2 3 cbr 1000 ------- 0 2.0 3.0 93 97
+ 0.769333 2 3 cbr 1000 ------- 0 2.0 3.0 101 108
- 0.769333 2 3 cbr 1000 ------- 0 2.0 3.0 101 108
r 0.771467 2 3 cbr 1000 ------- 0 2.0 3.0 94 98
+ 0.772 2 3 cbr 1000 ------- 0 2.0 3.0 102 109
- 0.772 2 3 cbr 1000 ------- 0 2.0 3.0 102 109
r 0.774133 2 3 cbr 1000 ------- 0 2.0 3.0 95 99
+ 0.774667 2 3 cbr 1000 ------- 0 2.0 3.0 103 110
- 0.774667 2 3 cbr 1000 ------- 0 2.0 3.0 103 110
r 0.775792 0 2 tcp 1000 ------- 1 0.0 4.0 2 104
+ 0.775792 2 3 tcp 1000 ------- 1 0.0 4.0 2 104
- 0.775792 2 3 tcp 1000 ------- 1 0.0 4.0 2 104
r 0.776592 0 2 tcp 1000 ------- 1 0.0 4.0 3 105
+ 0.776592 2 3 tcp 1000 ------- 1 0.0 4.0 3 105
- 0.776592 2 3 tcp 1000 ------- 1 0.0 4.0 3 105
r 0.7768 2 3 cbr 1000 ------- 0 2.0 3.0 96 100
+ 0.777333 2 3 cbr 1000 ------- 0 2.0 3.0 104 111
r 0.777392 0 2 tcp 1000 ------- 1 0.0 4.0 4 106
+ 0.777392 2 3 tcp 1000 ------- 1 0.0 4.0 4 106
- 0.777392 2 3 cbr 1000 ------- 0 2.0 3.0 104 111
- 0.778192 2 3 tcp 1000 ------- 1 0.0 4.0 4 106
r 0.779467 2 3 cbr 1000 ------- 0 2.0 3.0 97 101
+ 0.78 2 3 cbr 1000 ------- 0 2.0 3.0 105 112
- 0.78 2 3 cbr 1000 ------- 0 2.0 3.0 105 112
r 0.782133 2 3 cbr 1000 ------- 0 2.0 3.0 98 102
+ 0.782667 2 3 cbr 1000 ------- 0 2.0 3.0 106 113
- 0.782667 2 3 cbr 1000 ------- 0 2.0 3.0 106 113
r 0.7848 2 3 cbr 1000 ------- 0 2.0 3.0 99 103
+ 0.785333 2 3 cbr 1000 ------- 0 2.0 3.0 107 114
- 0.785333 2 3 cbr 1000 ------- 0 2.0 3.0 107 114
r 0.787467 2 3 cbr 1000 ------- 0 2.0 3.0 100 107
+ 0.788 2 3 cbr 1000 ------- 0 2.0 3.0 108 115
- 0.788 2 3 cbr 1000 ------- 0 2.0 3.0 108 115
r 0.790133 2 3 cbr 1000 ------- 0 2.0 3.0 101 108
+ 0.790667 2 3 cbr 1000 ------- 0 2.0 3.0 109 116
- 0.790667 2 3 cbr 1000 ------- 0 2.0 3.0 109 116
r 0.7928 2 3 cbr 1000 ------- 0 2.0 3.0 102 109
+ 0.793333 2 3 cbr 1000 ------- 0 2.0 3.0 110 117
- 0.793333 2 3 cbr 1000 ------- 0 2.0 3.0 110 117
r 0.795467 2 3 cbr 1000 ------- 0 2.0 3.0 103 110
+ 0.796 2 3 cbr 1000 ------- 0 2.0 3.0 111 118
- 0.796 2 3 cbr 1000 ------- 0 2.0 3.0 111 118
r 0.796592 2 3 tcp 1000 ------- 1 0.0 4.0 2 104
+ 0.796592 3 4 tcp 1000 ------- 1 0.0 4.0 2 104
- 0.796592 3 4 tcp 1000 ------- 1 0.0 4.0 2 104
r 0.797392 2 3 tcp 1000 ------- 1 0.0 4.0 3 105
+ 0.797392 3 4 tcp 1000 ------- 1 0.0 4.0 3 105
- 0.797392 3 4 tcp 1000 ------- 1 0.0 4.0 3 105
r 0.798192 2 3 cbr 1000 ------- 0 2.0 3.0 104 111
+ 0.798667 2 3 cbr 1000 ------- 0 2.0 3.0 112 119
- 0.798667 2 3 cbr 1000 ------- 0 2.0 3.0 112 119
r 0.798992 2 3 tcp 1000 ------- 1 0.0 4.0 4 106
+ 0.798992 3 4 tcp 1000 ------- 1 0.0 4.0 4 106
- 0.798992 3 4 tcp 1000 ------- 1 0.0 4.0 4 106
r 0.8008 2 3 cbr 1000 ------- 0 2.0 3.0 105 112
+ 0.801333 2 3 cbr 1000 ------- 0 2.0 3.0 113 120
- 0.801333 2 3 cbr 1000 ------- 0 2.0 3.0 113 120
r 0.803467 2 3 cbr 1000 ------- 0 2.0 3.0 106 113
+ 0.804 2 3 cbr 1000 ------- 0 2.0 3.0 114 121
- 0.804 2 3 cbr 1000 ------- 0 2.0 3.0 114 121
r 0.806133 2 3 cbr 1000 ------- 0 2.0 3.0 107 114
+ 0.806667 2 3 cbr 1000 ------- 0 2.0 3.0 115 122
- 0.806667 2 3 cbr 1000 ------- 0 2.0 3.0 115 122
r 0.807392 3 4 tcp 1000 ------- 1 0.0 4.0 2 104
+ 0.807392 4 3 ack 40 ------- 1 4.0 0.0 2 123
- 0.807392 4 3 ack 40 ------- 1 4.0 0.0 2 123
r 0.808192 3 4 tcp 1000 ------- 1 0.0 4.0 3 105
+ 0.808192 4 3 ack 40 ------- 1 4.0 0.0 3 124
- 0.808192 4 3 ack 40 ------- 1 4.0 0.0 3 124
r 0.8088 2 3 cbr 1000 ------- 0 2.0 3.0 108 115
+ 0.809333 2 3 cbr 1000 ------- 0 2.0 3.0 116 125
- 0.809333 2 3 cbr 1000 ------- 0 2.0 3.0 116 125
r 0.809792 3 4 tcp 1000 ------- 1 0.0 4.0 4 106
+ 0.809792 4 3 ack 40 ------- 1 4.0 0.0 4 126
- 0.809792 4 3 ack 40 ------- 1 4.0 0.0 4 126
r 0.811467 2 3 cbr 1000 ------- 0 2.0 3.0 109 116
+ 0.812 2 3 cbr 1000 ------- 0 2.0 3.0 117 127
- 0.812 2 3 cbr 1000 ------- 0 2.0 3.0 117 127
r 0.814133 2 3 cbr 1000 ------- 0 2.0 3.0 110 117
+ 0.814667 2 3 cbr 1000 ------- 0 2.0 3.0 118 128
- 0.814667 2 3 cbr 1000 ------- 0 2.0 3.0 118 128
r 0.8168 2 3 cbr 1000 ------- 0 2.0 3.0 111 118
+ 0.817333 2 3 cbr 1000 ------- 0 2.0 3.0 119 129
- 0.817333 2 3 cbr 1000 ------- 0 2.0 3.0 119 129
r 0.817424 4 3 ack 40 ------- 1 4.0 0.0 2 123
+ 0.817424 3 2 ack 40 ------- 1 4.0 0.0 2 123
- 0.817424 3 2 ack 40 ------- 1 4.0 0.0 2 123
r 0.818224 4 3 ack 40 ------- 1 4.0 0.0 3 124
+ 0.818224 3 2 ack 40 ------- 1 4.0 0.0 3 124
- 0.818224 3 2 ack 40 ------- 1 4.0 0.0 3 124
r 0.819467 2 3 cbr 1000 ------- 0 2.0 3.0 112 119
r 0.819824 4 3 ack 40 ------- 1 4.0 0.0 4 126
+ 0.819824 3 2 ack 40 ------- 1 4.0 0.0 4 126
- 0.819824 3 2 ack 40 ------- 1 4.0 0.0 4 126
+ 0.82 2 3 cbr 1000 ------- 0 2.0 3.0 120 130
- 0.82 2 3 cbr 1000 ------- 0 2.0 3.0 120 130
r 0.822133 2 3 cbr 1000 ------- 0 2.0 3.0 113 120
+ 0.822667 2 3 cbr 1000 ------- 0 2.0 3.0 121 131
- 0.822667 2 3 cbr 1000 ------- 0 2.0 3.0 121 131
r 0.8248 2 3 cbr 1000 ------- 0 2.0 3.0 114 121
+ 0.825333 2 3 cbr 1000 ------- 0 2.0 3.0 122 132
- 0.825333 2 3 cbr 1000 ------- 0 2.0 3.0 122 132
r 0.827467 2 3 cbr 1000 ------- 0 2.0 3.0 115 122
+ 0.828 2 3 cbr 1000 ------- 0 2.0 3.0 123 133
- 0.828 2 3 cbr 1000 ------- 0 2.0 3.0 123 133
r 0.830133 2 3 cbr 1000 ------- 0 2.0 3.0 116 125
+ 0.830667 2 3 cbr 1000 ------- 0 2.0 3.0 124 134
- 0.830667 2 3 cbr 1000 ------- 0 2.0 3.0 124 134
r 0.8328 2 3 cbr 1000 ------- 0 2.0 3.0 117 127
+ 0.833333 2 3 cbr 1000 ------- 0 2.0 3.0 125 135
- 0.833333 2 3 cbr 1000 ------- 0 2.0 3.0 125 135
r 0.835467 2 3 cbr 1000 ------- 0 2.0 3.0 118 128
+ 0.836 2 3 cbr 1000 ------- 0 2.0 3.0 126 136
- 0.836 2 3 cbr 1000 ------- 0 2.0 3.0 126 136
r 0.837456 3 2 ack 40 ------- 1 4.0 0.0 2 123
+ 0.837456 2 0 ack 40 ------- 1 4.0 0.0 2 123
- 0.837456 2 0 ack 40 ------- 1 4.0 0.0 2 123
r 0.838133 2 3 cbr 1000 ------- 0 2.0 3.0 119 129
r 0.838256 3 2 ack 40 ------- 1 4.0 0.0 3 124
+ 0.838256 2 0 ack 40 ------- 1 4.0 0.0 3 124
- 0.838256 2 0 ack 40 ------- 1 4.0 0.0 3 124
+ 0.838667 2 3 cbr 1000 ------- 0 2.0 3.0 127 137
- 0.838667 2 3 cbr 1000 ------- 0 2.0 3.0 127 137
r 0.839856 3 2 ack 40 ------- 1 4.0 0.0 4 126
+ 0.839856 2 0 ack 40 ------- 1 4.0 0.0 4 126
- 0.839856 2 0 ack 40 ------- 1 4.0 0.0 4 126
r 0.8408 2 3 cbr 1000 ------- 0 2.0 3.0 120 130
+ 0.841333 2 3 cbr 1000 ------- 0 2.0 3.0 128 138
- 0.841333 2 3 cbr 1000 ------- 0 2.0 3.0 128 138
r 0.843467 2 3 cbr 1000 ------- 0 2.0 3.0 121 131
+ 0.844 2 3 cbr 1000 ------- 0 2.0 3.0 129 139
- 0.844 2 3 cbr 1000 ------- 0 2.0 3.0 129 139
r 0.846133 2 3 cbr 1000 ------- 0 2.0 3.0 122 132
+ 0.846667 2 3 cbr 1000 ------- 0 2.0 3.0 130 140
- 0.846667 2 3 cbr 1000 ------- 0 2.0 3.0 130 140
r 0.847488 2 0 ack 40 ------- 1 4.0 0.0 2 123
+ 0.847488 0 2 tcp 1000 ------- 1 0.0 4.0 5 141
- 0.847488 0 2 tcp 1000 ------- 1 0.0 4.0 5 141
r 0.848288 2 0 ack 40 ------- 1 4.0 0.0 3 124
+ 0.848288 0 2 tcp 1000 ------- 1 0.0 4.0 6 142
- 0.848288 0 2 tcp 1000 ------- 1 0.0 4.0 6 142
r 0.8488 2 3 cbr 1000 ------- 0 2.0 3.0 123 133
+ 0.849333 2 3 cbr 1000 ------- 0 2.0 3.0 131 143
- 0.849333 2 3 cbr 1000 ------- 0 2.0 3.0 131 143
r 0.849888 2 0 ack 40 ------- 1 4.0 0.0 4 126
+ 0.849888 0 2 tcp 1000 ------- 1 0.0 4.0 7 144
- 0.849888 0 2 tcp 1000 ------- 1 0.0 4.0 7 144
r 0.851467 2 3 cbr 1000 ------- 0 2.0 3.0 124 134
+ 0.852 2 3 cbr 1000 ------- 0 2.0 3.0 132 145
- 0.852 2 3 cbr 1000 ------- 0 2.0 3.0 132 145
r 0.854133 2 3 cbr 1000 ------- 0 2.0 3.0 125 135
+ 0.854667 2 3 cbr 1000 ------- 0 2.0 3.0 133 146
- 0.854667 2 3 cbr 1000 ------- 0 2.0 3.0 133 146
r 0.8568 2 3 cbr 1000 ------- 0 2.0 3.0 126 136
+ 0.857333 2 3 cbr 1000 ------- 0 2.0 3.0 134 147
- 0.857333 2 3 cbr 1000 ------- 0 2.0 3.0 134 147
r 0.858288 0 2 tcp 1000 ------- 1 0.0 4.0 5 141
+ 0.858288 2 3 tcp 1000 ------- 1 0.0 4.0 5 141
- 0.858288 2 3 tcp 1000 ------- 1 0.0 4.0 5 141
r 0.859088 0 2 tcp 1000 ------- 1 0.0 4.0 6 142
+ 0.859088 2 3 tcp 1000 ------- 1 0.0 4.0 6 142
- 0.859088 2 3 tcp 1000 ------- 1 0.0 4.0 6 142
r 0.859467 2 3 cbr 1000 ------- 0 2.0 3.0 127 137
+ 0.86 2 3 cbr 1000 ------- 0 2.0 3.0 135 148
- 0.86 2 3 cbr 1000 ------- 0 2.0 3.0 135 148
r 0.860688 0 2 tcp 1000 ------- 1 0.0 4.0 7 144
+ 0.860688 2 3 tcp 1000 ------- 1 0.0 4.0 7 144
- 0.8608 2 3 tcp 1000 ------- 1 0.0 4.0 7 144
r 0.862133 2 3 cbr 1000 ------- 0 2.0 3.0 128 138
+ 0.862667 2 3 cbr 1000 ------- 0 2.0 3.0 136 149
- 0.862667 2 3 cbr 1000 ------- 0 2.0 3.0 136 149
r 0.8648 2 3 cbr 1000 ------- 0 2.0 3.0 129 139
+ 0.865333 2 3 cbr 1000 ------- 0 2.0 3.0 137 150
- 0.865333 2 3 cbr 1000 ------- 0 2.0 3.0 137 150
r 0.867467 2 3 cbr 1000 ------- 0 2.0 3.0 130 140
+ 0.868 2 3 cbr 1000 ------- 0 2.0 3.0 138 151
- 0.868 2 3 cbr 1000 ------- 0 2.0 3.0 138 151
r 0.870133 2 3 cbr 1000 ------- 0 2.0 3.0 131 143
+ 0.870667 2 3 cbr 1000 ------- 0 2.0 3.0 139 152
- 0.870667 2 3 cbr 1000 ------- 0 2.0 3.0 139 152
r 0.8728 2 3 cbr 1000 ------- 0 2.0 3.0 132 145
+ 0.873333 2 3 cbr 1000 ------- 0 2.0 3.0 140 153
- 0.873333 2 3 cbr 1000 ------- 0 2.0 3.0 140 153
r 0.875467 2 3 cbr 1000 ------- 0 2.0 3.0 133 146
+ 0.876 2 3 cbr 1000 ------- 0 2.0 3.0 141 154
- 0.876 2 3 cbr 1000 ------- 0 2.0 3.0 141 154
r 0.878133 2 3 cbr 1000 ------- 0 2.0 3.0 134 147
+ 0.878667 2 3 cbr 1000 ------- 0 2.0 3.0 142 155
- 0.878667 2 3 cbr 1000 ------- 0 2.0 3.0 142 155
r 0.879088 2 3 tcp 1000 ------- 1 0.0 4.0 5 141
+ 0.879088 3 4 tcp 1000 ------- 1 0.0 4.0 5 141
- 0.879088 3 4 tcp 1000 ------- 1 0.0 4.0 5 141
r 0.879888 2 3 tcp 1000 ------- 1 0.0 4.0 6 142
+ 0.879888 3 4 tcp 1000 ------- 1 0.0 4.0 6 142
- 0.879888 3 4 tcp 1000 ------- 1 0.0 4.0 6 142
r 0.8808 2 3 cbr 1000 ------- 0 2.0 3.0 135 148
+ 0.881333 2 3 cbr 1000 ------- 0 2.0 3.0 143 156
- 0.881333 2 3 cbr 1000 ------- 0 2.0 3.0 143 156
r 0.8816 2 3 tcp 1000 ------- 1 0.0 4.0 7 144
+ 0.8816 3 4 tcp 1000 ------- 1 0.0 4.0 7 144
- 0.8816 3 4 tcp 1000 ------- 1 0.0 4.0 7 144
r 0.883467 2 3 cbr 1000 ------- 0 2.0 3.0 136 149
+ 0.884 2 3 cbr 1000 ------- 0 2.0 3.0 144 157
- 0.884 2 3 cbr 1000 ------- 0 2.0 3.0 144 157
r 0.886133 2 3 cbr 1000 ------- 0 2.0 3.0 137 150
+ 0.886667 2 3 cbr 1000 ------- 0 2.0 3.0 145 158
- 0.886667 2 3 cbr 1000 ------- 0 2.0 3.0 145 158
r 0.8888 2 3 cbr 1000 ------- 0 2.0 3.0 138 151
+ 0.889333 2 3 cbr 1000 ------- 0 2.0 3.0 146 159
- 0.889333 2 3 cbr 1000 ------- 0 2.0 3.0 146 159
r 0.889888 3 4 tcp 1000 ------- 1 0.0 4.0 5 141
+ 0.889888 4 3 ack 40 ------- 1 4.0 0.0 5 160
- 0.889888 4 3 ack 40 ------- 1 4.0 0.0 5 160
r 0.890688 3 4 tcp 1000 ------- 1 0.0 4.0 6 142
+ 0.890688 4 3 ack 40 ------- 1 4.0 0.0 6 161
- 0.890688 4 3 ack 40 ------- 1 4.0 0.0 6 161
r 0.891467 2 3 cbr 1000 ------- 0 2.0 3.0 139 152
+ 0.892 2 3 cbr 1000 ------- 0 2.0 3.0 147 162
- 0.892 2 3 cbr 1000 ------- 0 2.0 3.0 147 162
r 0.8924 3 4 tcp 1000 ------- 1 0.0 4.0 7 144
+ 0.8924 4 3 ack 40 ------- 1 4.0 0.0 7 163
- 0.8924 4 3 ack 40 ------- 1 4.0 0.0 7 163
r 0.894133 2 3 cbr 1000 ------- 0 2.0 3.0 140 153
+ 0.894667 2 3 cbr 1000 ------- 0 2.0 3.0 148 164
- 0.894667 2 3 cbr 1000 ------- 0 2.0 3.0 148 164
r 0.8968 2 3 cbr 1000 ------- 0 2.0 3.0 141 154
+ 0.897333 2 3 cbr 1000 ------- 0 2.0 3.0 149 165
- 0.897333 2 3 cbr 1000 ------- 0 2.0 3.0 149 165
r 0.899467 2 3 cbr 1000 ------- 0 2.0 3.0 142 155
r 0.89992 4 3 ack 40 ------- 1 4.0 0.0 5 160
+ 0.89992 3 2 ack 40 ------- 1 4.0 0.0 5 160
- 0.89992 3 2 ack 40 ------- 1 4.0 0.0 5 160
+ 0.9 2 3 cbr 1000 ------- 0 2.0 3.0 150 166
- 0.9 2 3 cbr 1000 ------- 0 2.0 3.0 150 166
r 0.90072 4 3 ack 40 ------- 1 4.0 0.0 6 161
+ 0.90072 3 2 ack 40 ------- 1 4.0 0.0 6 161
- 0.90072 3 2 ack 40 ------- 1 4.0 0.0 6 161
r 0.902133 2 3 cbr 1000 ------- 0 2.0 3.0 143 156
r 0.902432 4 3 ack 40 ------- 1 4.0 0.0 7 163
+ 0.902432 3 2 ack 40 ------- 1 4.0 0.0 7 163
- 0.902432 3 2 ack 40 ------- 1 4.0 0.0 7 163
+ 0.902667 2 3 cbr 1000 ------- 0 2.0 3.0 151 167
- 0.902667 2 3 cbr 1000 ------- 0 2.0 3.0 151 167
r 0.9048 2 3 cbr 1000 ------- 0 2.0 3.0 144 157
+ 0.905333 2 3 cbr 1000 ------- 0 2.0 3.0 152 168
- 0.905333 2 3 cbr 1000 ------- 0 2.0 3.0 152 168
r 0.907467 2 3 cbr 1000 ------- 0 2.0 3.0 145 158
+ 0.908 2 3 cbr 1000 ------- 0 2.0 3.0 153 169
- 0.908 2 3 cbr 1000 ------- 0 2.0 3.0 153 169
r 0.910133 2 3 cbr 1000 ------- 0 2.0 3.0 146 159
+ 0.910667 2 3 cbr 1000 ------- 0 2.0 3.0 154 170
- 0.910667 2 3 cbr 1000 ------- 0 2.0 3.0 154 170
r 0.9128 2 3 cbr 1000 ------- 0 2.0 3.0 147 162
+ 0.913333 2 3 cbr 1000 ------- 0 2.0 3.0 155 171
- 0.913333 2 3 cbr 1000 ------- 0 2.0 3.0 155 171
r 0.915467 2 3 cbr 1000 ------- 0 2.0 3.0 148 164
+ 0.916 2 3 cbr 1000 ------- 0 2.0 3.0 156 172
- 0.916 2 3 cbr 1000 ------- 0 2.0 3.0 156 172
r 0.918133 2 3 cbr 1000 ------- 0 2.0 3.0 149 165
+ 0.918667 2 3 cbr 1000 ------- 0 2.0 3.0 157 173
- 0.918667 2 3 cbr 1000 ------- 0 2.0 3.0 157 173
r 0.919952 3 2 ack 40 ------- 1 4.0 0.0 5 160
+ 0.919952 2 0 ack 40 ------- 1 4.0 0.0 5 160
- 0.919952 2 0 ack 40 ------- 1 4.0 0.0 5 160
r 0.920752 3 2 ack 40 ------- 1 4.0 0.0 6 161
+ 0.920752 2 0 ack 40 ------- 1 4.0 0.0 6 161
- 0.920752 2 0 ack 40 ------- 1 4.0 0.0 6 161
r 0.9208 2 3 cbr 1000 ------- 0 2.0 3.0 150 166
+ 0.921333 2 3 cbr 1000 ------- 0 2.0 3.0 158 174
- 0.921333 2 3 cbr 1000 ------- 0 2.0 3.0 158 174
r 0.922464 3 2 ack 40 ------- 1 4.0 0.0 7 163
+ 0.922464 2 0 ack 40 ------- 1 4.0 0.0 7 163
- 0.922464 2 0 ack 40 ------- 1 4.0 0.0 7 163
r 0.923467 2 3 cbr 1000 ------- 0 2.0 3.0 151 167
+ 0.924 2 3 cbr 1000 ------- 0 2.0 3.0 159 175
- 0.924 2 3 cbr 1000 ------- 0 2.0 3.0 159 175
r 0.926133 2 3 cbr 1000 ------- 0 2.0 3.0 152 168
+ 0.926667 2 3 cbr 1000 ------- 0 2.0 3.0 160 176
- 0.926667 2 3 cbr 1000 ------- 0 2.0 3.0 160 176
r 0.9288 2 3 cbr 1000 ------- 0 2.0 3.0 153 169
+ 0.929333 2 3 cbr 1000 ------- 0 2.0 3.0 161 177
- 0.929333 2 3 cbr 1000 ------- 0 2.0 3.0 161 177
r 0.929984 2 0 ack 40 ------- 1 4.0 0.0 5 160
+ 0.929984 0 2 tcp 1000 ------- 1 0.0 4.0 8 178
- 0.929984 0 2 tcp 1000 ------- 1 0.0 4.0 8 178
+ 0.929984 0 2 tcp 1000 ------- 1 0.0 4.0 9 179
r 0.930784 2 0 ack 40 ------- 1 4.0 0.0 6 161
+ 0.930784 0 2 tcp 1000 ------- 1 0.0 4.0 10 180
+ 0.930784 0 2 tcp 1000 ------- 1 0.0 4.0 11 181
- 0.930784 0 2 tcp 1000 ------- 1 0.0 4.0 9 179
r 0.931467 2 3 cbr 1000 ------- 0 2.0 3.0 154 170
- 0.931584 0 2 tcp 1000 ------- 1 0.0 4.0 10 180
+ 0.932 2 3 cbr 1000 ------- 0 2.0 3.0 162 182
- 0.932 2 3 cbr 1000 ------- 0 2.0 3.0 162 182
- 0.932384 0 2 tcp 1000 ------- 1 0.0 4.0 11 181